LAMMPS data file via write_data, version 2 Apr 2025, timestep = 0, units = metal

31 atoms
1 atom types

0 7.23 xlo xhi
0 7.23 ylo yhi
0 7.23 zlo zhi

Masses

1 63.546

Atoms # apip

1 1 3.255649577011424 2.1469408310018205 1.596546647595962 0 0 0
2 1 5.312133977687514 0.2962629940541289 1.7986410677440656 0 0 0
3 1 0.3570136530341179 1.9589665444185802 1.8227120430766197 0 0 0
4 1 1.538770434276094 1.8506888783106994 3.5984777679252336 0 0 0
5 1 5.414379916412933 1.9802551521608864 3.5428423680157133 0 0 0
6 1 3.3396207511420926 0.34696444514694835 3.3284295847601864 0 0 0
7 1 0.04692381499727436 3.470558659189874 0.20838500420697273 0 0 0
8 1 3.5507628116865004 3.419576015011443 0.09808429731968064 0 0 0
9 1 3.4359438466091845 3.3442299605630015 3.344947182361245 0 0 0
10 1 3.262172986855113 1.8898900738753799 5.6074716235080135 0 0 0
11 1 5.616180533384058 0.24272458584617107 5.728614316596936 0 0 0
12 1 0.3320737270957668 2.133631298552561 5.648234772896504 0 0 0
13 1 7.193910458696732 0.040079315967661934 7.007063468494249 -1 0 -1
14 1 1.9428459507398523 2.008894084694746 6.974381464595852 0 0 -1
15 1 5.17195441765988 1.6398976096007498 7.144624559798802 0 0 -1
16 1 3.828212487222493 0.27427274843853566 7.084083006467942 0 0 -1
17 1 0.3576896118392189 3.5593061817506357 3.8539966829342287 0 0 0
18 1 5.549388330643712 3.3771731288636446 5.733276811271104 0 0 0
19 1 1.474782367736 3.311754538948766 5.203036111913638 0 0 0
20 1 3.353885621487343 5.483140337766679 1.559656844576661 0 0 0
21 1 1.4600851633288363 5.3693400677513985 0.16901869775192754 0 0 0
22 1 1.865319826459661 3.680823307523189 1.909829542233995 0 0 0
23 1 6.919428313555163 5.704165921616911 1.5626446154218376 -1 0 0
24 1 5.286111954406888 3.9741177165543746 1.894962129368895 0 0 0
25 1 5.661441532175263 5.770831269632481 0.2726487131030991 0 0 0
26 1 5.749451385769738 5.694440631979816 3.315201684766776 0 0 0
27 1 2.1656354707333425 5.630356615286487 3.525133119978771 0 0 0
28 1 3.4802512558478638 5.136357035041954 5.613687950103865 0 0 0
29 1 6.9476459434582605 5.669871702976 5.748711917622347 -1 0 0
30 1 0.3145319513743893 6.992506749359428 3.748936483911442 0 -1 0
31 1 2.0688280140984934 7.144932953378388 5.071647430554334 0 -1 0

Velocities

1 0 0 0
2 0 0 0
3 0 0 0
4 0 0 0
5 0 0 0
6 0 0 0
7 0 0 0
8 0 0 0
9 0 0 0
10 0 0 0
11 0 0 0
12 0 0 0
13 0 0 0
14 0 0 0
15 0 0 0
16 0 0 0
17 0 0 0
18 0 0 0
19 0 0 0
20 0 0 0
21 0 0 0
22 0 0 0
23 0 0 0
24 0 0 0
25 0 0 0
26 0 0 0
27 0 0 0
28 0 0 0
29 0 0 0
30 0 0 0
31 0 0 0
