LAMMPS data file via write_data, version 4 Feb 2025, timestep = 10000, units = metal

2047 atoms
1 atom types

0 28.92 xlo xhi
0 28.92 ylo yhi
0 28.92 zlo zhi

Masses

1 63.546

Atoms # apip

1 1 0.09732500422361327 0.04310141067600093 0.07682246264070876 0 0 0
2 1 1.7121990221456447 2.0033942141608923 0.05021736702764211 0 0 0
3 1 1.9335197166892168 0.051484918492171496 1.7139671593572459 0 0 0
4 1 28.912958069491534 1.858105540486262 1.8383648158630967 -1 0 0
1452 1 27.167210176477436 14.377629311468402 12.701778830775837 0 0 0
6 1 3.5946724173343387 2.001813246542295 1.7194561439984033 0 0 0
7 1 28.874979208338882 3.5997993604237166 0.10914283700489294 -1 0 0
8 1 1.8233100785891205 3.6281089321363478 1.7749333878379254 0 0 0
1444 1 21.71085297445213 14.447058002507953 10.973587322542175 0 0 0
511 1 27.175041483060028 10.762548131581397 12.767788739191165 0 0 0
11 1 1.8274119523158354 1.8880561998553287 3.6480615081677272 0 0 0
12 1 3.643153553611226 0.1261082793577538 3.6067081302209925 0 0 0
13 1 0.08336810789360805 3.68106606846794 3.6446027139144275 0 0 0
14 1 3.585819352274542 3.620521467525093 3.660490765325273 0 0 0
1440 1 19.990541835375364 14.384573298171858 12.784026220688194 0 0 0
16 1 5.3874531274674755 0.13290620884258106 1.768485509606327 0 0 0
1438 1 18.06345202988573 14.374343261856666 10.981032038736856 0 0 0
18 1 7.263633162868588 1.744140022532258 1.8841383523942807 0 0 0
19 1 5.427001346610782 3.714814770784622 1.9198375227542777 0 0 0
20 1 7.212829950476004 3.6676114974457223 0.11333902187735598 0 0 0
21 1 5.407921832208971 1.8089657118000124 3.6264169127422368 0 0 0
22 1 7.299859054692286 0.05969948550779625 3.6118614330767307 0 0 0
23 1 7.200193693502859 3.5986098562941375 3.6498997579946733 0 0 0
1430 1 12.671395547125648 14.419165678726396 12.45769098216156 0 0 0
510 1 27.15953138903114 12.698624060203331 10.795173639447627 0 0 0
26 1 10.872410114153434 0.04518107546827359 0.05822677391781638 0 0 0
27 1 10.904823385370607 1.8215941361585946 1.8289065152261264 0 0 0
28 1 9.128115022933631 3.5396462010881975 1.838442917110002 0 0 0
1425 1 10.797697172359468 14.437279322304498 10.741572352205356 0 0 0
30 1 9.044272019681015 1.7293783138508918 3.5903023947561374 0 0 0
509 1 25.267745348948168 10.866362620366196 10.937810054506684 0 0 0
32 1 10.89685733860719 3.6022599923668452 3.6260287727022593 0 0 0
1419 1 7.158916207965011 14.447750840271116 10.799607863091662 0 0 0
34 1 12.684774934815046 0.00940433322975244 1.7657780449747662 0 0 0
1418 1 5.414261822338375 14.42473600000568 12.814451239156051 0 0 0
36 1 16.245850648795393 1.7921648628602789 0.015917135475932178 0 0 0
37 1 16.15968760551608 0.025789862481518447 1.7564555197390268 0 0 0
38 1 14.46202429687432 1.9509467461933234 1.7861708114614514 0 0 0
39 1 12.609995543115597 3.726940987163512 1.7067954687334626 0 0 0
1284 1 27.08144969741794 14.450504293030644 8.98191693067795 0 0 0
41 1 16.348615012555353 3.607517126547999 1.8186212666686232 0 0 0
42 1 12.76866391892895 1.8977755146787458 3.563626797157509 0 0 0
43 1 14.541858936795443 0.167763485197368 3.594839873117365 0 0 0
44 1 16.357593511042857 1.8332555507401571 3.671942636066917 0 0 0
45 1 14.55301864951147 3.6825586153262497 3.6436496044492817 0 0 0
508 1 21.793539912889972 12.660968187120437 12.643494221785955 0 0 0
47 1 19.94960609179609 1.8072121335523408 0.11785121046132364 0 0 0
507 1 23.492524230223154 10.989548593367642 12.749087952502906 0 0 0
49 1 18.15246705720291 1.7575603636490829 1.8348113189399895 0 0 0
50 1 18.103289491986885 3.6468058667644216 0.08150646624712955 0 0 0
51 1 19.975623611274877 3.5923757233070894 1.7851573289268208 0 0 0
52 1 18.174508300082174 0.05064452968216956 3.5105623177505993 0 0 0
53 1 19.998694171691813 1.9191671038938367 3.574334343509366 0 0 0
54 1 18.27644657316442 3.678265093085078 3.5814794372250707 0 0 0
506 1 23.493952279966777 12.630242318353702 10.845359719162811 0 0 0
56 1 23.52273838390801 1.6915656777423569 0.05193237632217542 0 0 0
505 1 21.72079139974979 10.768492324739746 10.886029648151831 0 0 0
58 1 21.804194909311832 1.6922127574851533 1.8020377287238207 0 0 0
1266 1 19.922308904098262 14.43024457619384 9.204432391510837 0 0 0
60 1 23.628005050716897 3.675703742455714 1.794376408092728 0 0 0
61 1 21.7425773494615 0.004991308509859016 3.7284967758250604 0 0 0
62 1 23.602161727412096 1.853214558205297 3.6815262932968937 0 0 0
63 1 21.823657111208885 3.700550374067581 3.591453644764029 0 0 0
64 1 25.389746767642183 0.01566511887245319 0.043966112873132894 0 0 0
65 1 27.032302106543504 1.820428693270385 0.04648481845951699 0 0 0
504 1 18.211269548791602 12.631439961987134 12.706388287946153 0 0 0
67 1 25.21190562984444 1.7298638455312954 1.9311136309806007 0 0 0
68 1 25.29093955718732 3.616360610369309 0.11635554993982246 0 0 0
69 1 27.11175900633951 3.6782753671483586 1.8027046093809782 0 0 0
503 1 20.05864495338443 10.781963572631104 12.796484787798198 0 0 0
71 1 27.054034528766856 1.7476475261982996 3.476806648963557 0 0 0
72 1 25.498188672998307 3.5662739397416523 3.502408839490153 0 0 0
73 1 1.9647954129027523 5.609086071787101 0.11488752404780757 0 0 0
74 1 0.07158781213884186 5.4468374920976625 1.9335427754552554 0 0 0
75 1 3.67077510921679 5.478650200994103 1.8760886500841885 0 0 0
76 1 0.008602685842886714 7.2341706807153185 0.05558656423106359 0 0 0
77 1 1.9534848569118395 9.084733540186622 0.027628916148356036 0 0 0
78 1 1.7414638251180232 7.309840053981572 1.9380515174080948 0 0 0
79 1 0.009805528020954057 9.16959731937061 1.8353210326831229 0 0 0
80 1 3.568337066230005 7.410399921400052 0.1305174232413551 0 0 0
81 1 3.6247384366428945 9.055479395534674 1.8370318484334551 0 0 0
82 1 1.85619030478535 5.500719598543634 3.6454732806087455 0 0 0
83 1 28.880281655283905 7.377335745104761 3.582251603793526 -1 0 0
84 1 1.8711158928579272 9.158184214554039 3.7305068885299835 0 0 0
85 1 3.590757337642941 7.2418819943470565 3.7685908262987833 0 0 0
86 1 5.546740618190066 5.566890537789641 0.20112399794800584 0 0 0
87 1 7.279820257349435 5.368813653316321 1.9107565034406693 0 0 0
88 1 5.427855421245273 8.947936689066484 0.022152772738541958 0 0 0
89 1 5.46400343745518 7.320925226109899 1.9324778263459286 0 0 0
90 1 7.353700411629365 7.227569247919963 0.007346184959848799 0 0 0
91 1 7.290431339109305 9.048649249616071 1.747581717988748 0 0 0
92 1 5.406182416211709 5.474382099319414 3.630204070275595 0 0 0
93 1 5.464597100175145 9.03148173369045 3.696236400813613 0 0 0
94 1 7.270962021390132 7.27081745470413 3.6198537204036616 0 0 0
95 1 9.101525750592327 5.375401414803887 0.07692652344873671 0 0 0
96 1 10.863061020847116 5.406813339702294 1.761289234497344 0 0 0
1264 1 18.1008282896588 14.420885506693198 7.387966836947562 0 0 0
98 1 9.070347752469127 7.207191596135271 1.7993563685926621 0 0 0
1261 1 19.93086352264447 14.407749928835285 5.508670712220946 0 0 0
100 1 10.893096967295754 8.985483238377473 1.8584565303536171 0 0 0
101 1 9.123621926930864 5.442548710883918 3.557225137497647 0 0 0
102 1 9.093652569431748 9.093367630221262 3.5592729168292476 0 0 0
103 1 10.771953258588411 7.308097982451203 3.720180539948778 0 0 0
1256 1 16.19073844297664 14.428650030727608 9.024007669843094 0 0 0
105 1 16.19517826912991 5.441622734993824 0.014253793878016882 0 0 0
106 1 14.45043414359023 5.351114321014304 1.7996957532559732 0 0 0
1248 1 16.165139528425218 14.320051763977222 5.507784133212307 0 0 0
108 1 12.599164044276767 7.168388101498432 1.9283551925732563 0 0 0
109 1 14.377332860759036 7.35603535514215 0.0164060796266628 0 0 0
1247 1 12.677888621356859 14.4599161911652 5.467954672877873 0 0 0
111 1 16.159817687482164 7.286043738011895 1.8604376192661785 0 0 0
112 1 14.40807058098227 9.209206880310271 1.7304056820209768 0 0 0
113 1 12.68452105154224 5.408269331041414 3.5536085069456727 0 0 0
114 1 16.36154189657127 5.377041606133078 3.536755264507207 0 0 0
115 1 12.708024574884401 8.995979870658905 3.585792456216948 0 0 0
116 1 14.57699738983881 7.381180848885581 3.6059035106452697 0 0 0
117 1 16.15262764200144 9.0485156001815 3.548799220081303 0 0 0
1243 1 10.921996840593113 14.405171899452265 7.298593669001879 0 0 0
119 1 18.124079197217036 5.531519189128504 1.7287934960074398 0 0 0
120 1 18.19839746941918 7.248706497112684 0.024890465670043556 0 0 0
1238 1 9.092592814355363 14.387994449174883 5.463420585633338 0 0 0
122 1 19.91582523810024 7.14557081471899 1.71481705979621 0 0 0
123 1 18.149051694704685 9.008642008919065 1.8836719462931524 0 0 0
124 1 19.939449081738044 5.419522860324374 3.6363533635499437 0 0 0
125 1 18.078688388257024 7.212714253029186 3.5916409256608546 0 0 0
126 1 19.829511882879338 9.038223721538078 3.6346437034382126 0 0 0
1234 1 7.137460074355396 14.391863540179925 7.348218923972431 0 0 0
128 1 21.86204605090618 5.464785254347478 1.885017224730524 0 0 0
129 1 21.753879422140834 7.128715714392219 0.0240981368788437 0 0 0
130 1 23.70224368439843 9.063838296540457 0.05833594068213456 0 0 0
131 1 23.52700581346915 7.234624853424303 1.7186200369887934 0 0 0
132 1 21.602490472455493 9.008133135015113 1.9033057303934473 0 0 0
133 1 23.74979566964746 5.436042604582498 3.6458471251194617 0 0 0
134 1 21.606658979107387 7.272619114964603 3.5698588391255486 0 0 0
135 1 23.42015433682879 8.886963749139065 3.6312910418475326 0 0 0
136 1 27.125748956626882 5.5032588891129635 0.09820483470469496 0 0 0
137 1 25.265196733902055 5.542566654632308 1.7304380950712974 0 0 0
1233 1 5.480961489675928 14.417487960555643 9.0275185898226 0 0 0
1229 1 5.435996832508619 14.415436121110082 5.561231422364437 0 0 0
140 1 27.188170875761244 7.362082122593612 1.8275254080356487 0 0 0
141 1 25.33950164020222 9.109337046157435 1.7847403986376447 0 0 0
142 1 27.142461603184753 5.531603971357139 3.6578547653178366 0 0 0
143 1 25.27056380594209 7.255936920949585 3.5492912617984436 0 0 0
144 1 27.05755180069363 9.129650420814972 3.4949992837121826 0 0 0
145 1 0.03579702858054348 10.892195402253838 0.13761704010941797 0 0 0
146 1 25.2668394014521 12.643423855863778 12.741264590196685 0 0 0
147 1 1.7678904694062374 10.795931464506182 1.8043939632303154 0 0 0
148 1 0.10380885169938611 12.80911330830105 1.8304264033080184 0 0 0
149 1 3.667636103484524 10.962640306677493 0.1730860506480861 0 0 0
150 1 3.5785192432153794 12.639314339824091 1.8964764467711803 0 0 0
151 1 28.754197097671998 10.838628541271705 3.6489799710166837 -1 0 0
152 1 1.7704375419579563 12.579375547452848 3.6355111721675715 0 0 0
153 1 3.6621970648139035 10.78288310890097 3.613725365325567 0 0 0
154 1 5.4804234871232405 12.630861475254834 0.06415526490181137 0 0 0
155 1 5.46404025404181 10.753773407685655 1.751723925428565 0 0 0
1220 1 28.807988001736184 14.434390284474842 7.288693142886066 -1 0 0
157 1 7.206180412779262 12.575234731410852 1.7768026364090865 0 0 0
158 1 5.353285723690307 12.670614099400654 3.6751902662158153 0 0 0
159 1 7.321781283832219 10.870013303810257 3.6737191404367886 0 0 0
1093 1 25.31506930695457 14.351467439138446 3.690277617158326 0 0 0
161 1 9.10987482438377 10.97600273084261 1.8223675312035414 0 0 0
1089 1 27.099463815918458 14.421237622922332 1.8151387795872542 0 0 0
163 1 10.779902386325915 12.732802415665523 1.8447480981184847 0 0 0
164 1 9.221816701690924 12.690670770401768 3.7118230419173686 0 0 0
165 1 10.917586312208734 10.852580926561952 3.6085353077985776 0 0 0
166 1 12.672031343482812 12.637593714426973 0.044970281733095745 0 0 0
167 1 12.569265389062235 10.896635228199782 1.813046065669423 0 0 0
168 1 14.370478856828518 10.826751491352343 0.0029062189346353456 0 0 0
169 1 16.22634343977014 12.584602360795543 0.15357261408541684 0 0 0
170 1 16.233461256188264 10.733737727127316 1.6289563186094203 0 0 0
171 1 14.403134331117059 12.618986451479877 1.8423921106376786 0 0 0
172 1 12.573700507283663 12.642770890901131 3.632292429205356 0 0 0
173 1 14.39761284698846 10.966355617067546 3.5829663651205936 0 0 0
174 1 16.22926787097759 12.635561997493458 3.5288225815067973 0 0 0
175 1 18.01013263370134 10.796001192493554 0.051798956008105315 0 0 0
1087 1 25.228155907645455 14.399115526444218 0.11761766488788962 0 0 0
177 1 19.76005868147532 10.889103949786618 1.7732147884587652 0 0 0
178 1 17.938127593290453 12.614615428825827 1.7311427562848751 0 0 0
179 1 17.893486411632143 10.755240864370341 3.567529471545412 0 0 0
180 1 19.651313649557625 12.63640300323947 3.577962951934046 0 0 0
181 1 21.73774068822774 10.860812826288472 0.022654872454323325 0 0 0
1080 1 23.43716919901702 14.366807576067886 1.8842883478123416 0 0 0
183 1 23.412456955710347 10.78330537827221 1.836414547850626 0 0 0
184 1 21.50001991479523 12.708632310461178 1.879647894128281 0 0 0
185 1 21.63064619459984 10.8587175670998 3.6290449289580673 0 0 0
186 1 23.318519611291695 12.570690404285045 3.5343623126827652 0 0 0
1075 1 17.918848775418365 14.345729149090744 3.7335759377877076 0 0 0
188 1 27.105737209614894 12.75902835005304 0.004325091653642602 0 0 0
189 1 27.08453055887258 10.972875578124784 1.7718080309057245 0 0 0
190 1 25.24658507025983 12.654234639178537 1.8488532223424876 0 0 0
191 1 25.232821538073498 10.829487436535313 3.6627899429462563 0 0 0
192 1 27.11814732779707 12.607969937286574 3.6333620323316147 0 0 0
193 1 1.7668130911110724 0.0808184090162157 5.36274259125743 0 0 0
194 1 28.894465659677454 1.6756771950658698 5.371270227613179 -1 0 0
195 1 3.6131038619501354 1.9085693354001487 5.454818599235491 0 0 0
196 1 1.696203555309188 3.556174404214937 5.625860427376405 0 0 0
197 1 28.91938137442948 0.06038775662665957 7.244308908561143 -1 0 0
198 1 1.8450917161727718 1.8017533970221835 7.24579640014496 0 0 0
199 1 1.7562545988263636 0.052605085862242495 8.970161534220857 0 0 0
200 1 28.853789538828053 1.7713729498443609 9.111055001606436 -1 0 0
201 1 3.6203691973291283 0.07003295224054167 7.274542927952003 0 0 0
202 1 3.6570058746028056 1.90223149750179 8.977589925136659 0 0 0
203 1 28.837316085326073 3.703423835163473 7.266468897640464 -1 0 0
204 1 1.7305481570473564 3.6863291813073786 8.8520966753801 0 0 0
205 1 3.6537058256293102 3.5572966905388737 7.317385074589089 0 0 0
206 1 5.396982529179854 0.11358380685214498 5.379333956412412 0 0 0
207 1 7.355053458633875 1.6606435791155936 5.421728964315695 0 0 0
208 1 5.370563535113076 3.6249608775858215 5.471157471060175 0 0 0
209 1 5.59969864057699 1.9125035997356405 7.204366043711253 0 0 0
210 1 5.467581042057833 0.05603248732240649 8.996812960447519 0 0 0
502 1 19.890872738339183 12.552754227133603 11.008017938158142 0 0 0
212 1 7.213416834746557 1.7328608973002946 8.953026123017034 0 0 0
213 1 5.5802937306313165 3.654094063345 8.889965836732035 0 0 0
214 1 7.435027123195975 3.614938460471609 7.134133041077876 0 0 0
501 1 18.10121827273443 10.952635664109266 10.934212676624618 0 0 0
216 1 10.90722657591339 1.7802563119805326 5.39543193862629 0 0 0
217 1 9.063509894710279 3.663920089179782 5.260232774024856 0 0 0
218 1 9.054919514268633 1.9085503404707265 7.140886486497645 0 0 0
219 1 9.106668922437986 0.06834183116762385 8.992273581376406 0 0 0
220 1 10.84185382940142 0.051080126057107864 7.3029664585931515 0 0 0
221 1 10.907874452642966 1.8776476972224585 8.894023837223395 0 0 0
222 1 9.146190589221264 3.620370329160361 9.097422552807007 0 0 0
223 1 10.906672539172733 3.6919994021588494 7.133700301628672 0 0 0
224 1 12.493003325388818 0.0019406079538344142 5.399090726391885 0 0 0
225 1 16.29529311101501 0.0633478450998096 5.412994776869063 0 0 0
226 1 14.39291093797769 1.734014633884842 5.51042434834737 0 0 0
227 1 12.83601366204235 3.6694888405173907 5.412859070995153 0 0 0
228 1 16.23177196324445 3.5218359842781353 5.53710946734968 0 0 0
229 1 12.725386435953348 1.8941538372377327 7.326918999625985 0 0 0
230 1 12.687441118489911 0.020478659142996732 9.04553335130329 0 0 0
231 1 14.497179268175866 0.008422849600715812 7.242879209337862 0 0 0
232 1 16.212747031516116 1.6586486457593927 7.215577482463774 0 0 0
500 1 14.390791028395244 12.574992800913853 12.761703013300746 0 0 0
234 1 14.461435638334008 1.8905706839796028 9.171626442941795 0 0 0
235 1 12.738722583046432 3.7129542840288066 9.11219401873159 0 0 0
236 1 14.46158560897936 3.6508278258581464 7.328866048669269 0 0 0
237 1 16.35427485362727 3.566565540928282 9.057491992935905 0 0 0
238 1 19.991494514076194 0.1715413799869662 5.404048012467218 0 0 0
239 1 18.16420029435083 1.9344236975315872 5.280352992184055 0 0 0
240 1 19.975019296232123 3.607471403002858 5.57766177130548 0 0 0
241 1 18.11497504215423 0.04839233963156307 7.250061958770372 0 0 0
242 1 19.96332490981695 1.8843574289867444 7.311255469793439 0 0 0
243 1 19.822085511081998 0.04334600431183452 8.999261670627726 0 0 0
244 1 18.124566980815416 1.7427040035715722 9.132706958365997 0 0 0
245 1 18.07770138155592 3.5172390464090344 7.3305525154197335 0 0 0
246 1 19.84802048949405 3.603581844310221 9.11613455005463 0 0 0
247 1 23.64795598917341 0.04952992690464043 5.453326159115658 0 0 0
248 1 21.71805537249795 1.9374699735769398 5.4188302814797895 0 0 0
249 1 23.65761844698856 3.6068347968290646 5.419347541728302 0 0 0
499 1 16.25423947079238 10.883402342582302 12.749509879323435 0 0 0
251 1 23.61291162739287 1.7199960698884578 7.114632004496483 0 0 0
252 1 23.521815259208086 0.020294778077045786 8.904774748471045 0 0 0
253 1 21.78868465477724 1.6214718654194098 8.939951492904632 0 0 0
254 1 21.831487150298152 3.5537989285417337 7.25768393605485 0 0 0
255 1 23.494943744381274 3.4537830958705236 8.984242061107903 0 0 0
256 1 27.198946969792544 0.02255137930628444 5.3867042017173965 0 0 0
257 1 25.37017152798467 1.8034486947838166 5.400940898883481 0 0 0
258 1 27.21330187875632 3.5243708921276458 5.432941071573543 0 0 0
498 1 16.169427886651636 12.593873117830947 11.117734225217895 0 0 0
260 1 27.090678457731425 1.7729842045547055 7.265050955229479 0 0 0
261 1 26.96238029955439 0.04532543597718724 8.991621669839684 0 0 0
262 1 25.321955476481804 1.8197322979033286 9.144144985236236 0 0 0
263 1 25.282648376230874 3.554557216770113 7.173727912575097 0 0 0
264 1 27.193611667270158 3.605213348363208 9.028631295161317 0 0 0
265 1 28.828237186979067 5.564490542326439 5.355156322812883 -1 0 0
266 1 3.601299092325045 5.262956682748178 5.428647816226868 0 0 0
267 1 1.6380387476199778 7.391676394799236 5.434530869341395 0 0 0
268 1 28.752040341233897 9.223346853938683 5.375215992704667 -1 0 0
269 1 3.7949551510376067 9.035133205569828 5.463454292919164 0 0 0
270 1 1.767089459157851 5.572161679567235 7.1948430804149215 0 0 0
271 1 28.824076115063644 5.578589702662273 8.991663506045324 -1 0 0
272 1 3.5727884588146273 5.443668691443792 8.944067476225827 0 0 0
273 1 28.804610313648997 7.319346354335015 7.116924676987402 -1 0 0
274 1 1.7803441097032395 9.082202250915275 7.1363828169720955 0 0 0
275 1 1.8183604593265121 7.3279298883247845 9.091350357908066 0 0 0
276 1 28.85065059831173 9.069989663664392 9.099157959248025 -1 0 0
277 1 3.5348833992019197 7.25564580535899 7.2180094674152295 0 0 0
278 1 3.5231023252942064 8.974931663577395 8.945595056742995 0 0 0
279 1 7.152684824199476 5.371170526063997 5.377478927421548 0 0 0
280 1 5.323034384994105 7.165525684012353 5.502664187960508 0 0 0
281 1 7.221658865279657 8.97683157907048 5.58125689807381 0 0 0
282 1 5.499783743485856 5.432544364740452 7.136194803145425 0 0 0
283 1 7.271140915692506 5.526476116914022 8.840800836376246 0 0 0
284 1 5.513125925537538 9.049842744607783 7.353966413717082 0 0 0
285 1 5.317370354578205 7.192508736997171 9.083270013506432 0 0 0
286 1 7.3186974212374025 7.204330803003472 7.308828171039063 0 0 0
287 1 7.316726753015966 9.063997974975388 9.103874122911215 0 0 0
288 1 11.034642267996933 5.401168510620479 5.466028959477359 0 0 0
289 1 8.944881049586437 7.1020557661133275 5.490984015665981 0 0 0
290 1 10.98223109617192 9.124068061103484 5.39696800612497 0 0 0
291 1 9.26245751791194 5.33042209561602 7.21312160939955 0 0 0
292 1 10.806939773851498 5.374600691432405 9.03284367920257 0 0 0
293 1 9.065842811850263 9.05146606446025 7.1499571618734 0 0 0
294 1 9.134895953367632 7.291135033965814 8.976754935982967 0 0 0
295 1 10.82667069092083 7.317893551903026 7.037786245546771 0 0 0
296 1 10.863326674708619 9.026318136829413 8.925527709260658 0 0 0
297 1 14.538494371826221 5.439324108235428 5.435874761274879 0 0 0
298 1 12.799109001981263 7.268386797710059 5.463233151017179 0 0 0
299 1 16.25902893416854 7.254401730081504 5.406181288428738 0 0 0
300 1 14.406177636041765 9.128011420897492 5.381700590334107 0 0 0
301 1 12.740122858973002 5.461927096338073 7.352778551250109 0 0 0
302 1 16.42858731940497 5.52064355530609 7.236494077247161 0 0 0
303 1 14.502300352110268 5.475545291197978 8.947619153646544 0 0 0
304 1 12.770135498311204 8.990271342279456 7.107348630859523 0 0 0
305 1 12.688139549144976 7.226791491534466 8.985500221652368 0 0 0
306 1 14.635079226907688 7.231791307324326 7.165637935476049 0 0 0
307 1 16.387933859182027 9.077205083610586 7.246108573188314 0 0 0
308 1 16.413942120259534 7.256423996249213 9.058379026994247 0 0 0
309 1 14.512182777763675 8.976323369259307 8.962079738395136 0 0 0
310 1 18.069851345185008 5.315185576866982 5.421587781288341 0 0 0
311 1 19.880040756499493 7.240511051072183 5.471309970914784 0 0 0
312 1 18.120253270708258 9.19474523079117 5.368017610515035 0 0 0
313 1 19.862485134998686 5.449661433470777 7.207270391567163 0 0 0
314 1 18.109532539931276 5.4822118290226145 9.107695304601496 0 0 0
315 1 18.1880346301576 7.312615568232906 7.240984496686314 0 0 0
316 1 20.01569091289247 9.171136332448159 7.407781738479854 0 0 0
317 1 19.845566356071103 7.266639755416486 9.016968967621272 0 0 0
318 1 18.073729587185483 9.141823298051357 9.050808224680765 0 0 0
319 1 21.740030324846096 5.428912728419315 5.402975144859004 0 0 0
320 1 23.527922081383824 7.12670755673764 5.4659969167728635 0 0 0
321 1 21.794090537398315 8.903570642345437 5.505660083226298 0 0 0
322 1 23.706551690857 5.366489851546141 7.312187162695994 0 0 0
323 1 21.81047235384061 5.423006569183255 8.982693630375586 0 0 0
324 1 21.82170847757822 7.084484464027859 7.242280979562882 0 0 0
325 1 23.434853762283833 8.987533269917023 7.292487930634102 0 0 0
326 1 23.48914452442828 7.352814110697034 9.26133108375499 0 0 0
327 1 21.700881478340317 9.037896895261934 9.11088728274331 0 0 0
328 1 25.395701053826954 5.428950759500669 5.413560541999403 0 0 0
329 1 27.128856295622416 7.2527092932177935 5.348589800066454 0 0 0
330 1 25.20804678449177 8.939887810584013 5.424791012699802 0 0 0
331 1 27.045297315730068 5.428197505798605 7.248956743807726 0 0 0
332 1 25.44404901989098 5.2336042816612975 9.077169690009278 0 0 0
333 1 25.249144765678192 7.198988591770635 7.4390101725446325 0 0 0
334 1 26.990727467965186 9.032326638921411 7.294840372631537 0 0 0
335 1 27.05545406570769 7.315837211843909 8.982251427819993 0 0 0
336 1 25.303320848070637 9.075997694766615 9.059502641883547 0 0 0
337 1 1.8198812256865289 10.856647395719103 5.435877468523428 0 0 0
338 1 28.794253943727508 12.639055232397677 5.484330759511053 -1 0 0
339 1 3.602908870035588 12.758258980483802 5.376049858969562 0 0 0
340 1 0.1525789171875677 10.852420136334102 7.187363480219363 0 0 0
341 1 1.81614736028622 12.723899446262665 7.156386491442253 0 0 0
342 1 1.9079299902822435 10.890530388148017 8.956031402863626 0 0 0
343 1 28.869710236315065 12.72717612142766 9.131378669201606 -1 0 0
344 1 3.796094136440133 10.917809731186958 7.228657268479377 0 0 0
345 1 3.6954363179430954 12.713172774059212 9.11084481788612 0 0 0
346 1 5.50107606208305 10.82251520460152 5.264843371358011 0 0 0
347 1 7.254920884633805 12.670542282791066 5.500502089378658 0 0 0
348 1 5.4942814812093745 12.56754039786915 7.125472749659095 0 0 0
349 1 5.353289673708554 10.753647355906157 9.031575177016167 0 0 0
350 1 7.312147922737797 10.739338152423013 7.2709956434775 0 0 0
351 1 7.093942470548645 12.51690345506286 9.021788548968605 0 0 0
352 1 9.042699112765533 10.895462753497435 5.488059288569105 0 0 0
353 1 10.935033374462426 12.62137803593843 5.435678846897292 0 0 0
354 1 9.015517644583326 12.680368300773125 7.227736011920844 0 0 0
355 1 9.050238866393581 10.843497940669216 9.022288315354862 0 0 0
356 1 10.835621495199371 10.878061496774276 7.234200040658937 0 0 0
357 1 10.878416264750117 12.604043980608452 9.008838831956002 0 0 0
358 1 12.72431397540358 10.888643059233674 5.448899877229276 0 0 0
359 1 16.24222513354989 10.992645339204435 5.4670699010180215 0 0 0
360 1 14.412814810264152 12.67281126127978 5.53579033573755 0 0 0
361 1 12.746256617207436 12.74812505220975 7.367779091694552 0 0 0
362 1 12.77613671144909 10.836888050914883 9.114078175777994 0 0 0
363 1 14.489261204428477 10.782694426243804 7.352841727180175 0 0 0
364 1 16.122811709567276 12.609448122998156 7.291052639923896 0 0 0
365 1 16.36583889556875 10.853182442542677 9.099771028689458 0 0 0
366 1 14.559326983979972 12.641510198214274 9.176862849058656 0 0 0
367 1 19.988590700599225 10.865325953641445 5.566302653231649 0 0 0
368 1 18.05389342606893 12.619367521080635 5.465710987819378 0 0 0
369 1 18.151609091277734 11.052782034464139 7.251232357130019 0 0 0
370 1 19.889963246245948 12.717217330562375 7.292045820803729 0 0 0
371 1 19.923077977669948 10.972253999519795 9.168875738816588 0 0 0
372 1 17.966193539386566 12.721427176973467 9.167870268231981 0 0 0
373 1 23.458919044767814 10.781107437911409 5.406907152534934 0 0 0
374 1 21.695713396985088 12.765402629017238 5.444499236120573 0 0 0
375 1 21.78008431750491 10.931290293831536 7.265762113290054 0 0 0
376 1 23.518980175507938 12.598385392984529 7.216625985277849 0 0 0
377 1 23.511922847482303 10.77529301074083 9.046621854907684 0 0 0
378 1 21.72258094961416 12.611713665837645 9.10113650930243 0 0 0
379 1 27.00997300430866 11.00890069870319 5.511601289881211 0 0 0
380 1 25.1020031819141 12.597785122903801 5.40457885611629 0 0 0
381 1 25.293098444761952 10.756152187028546 7.2732035182495425 0 0 0
382 1 26.998663070129357 12.561288326715783 7.30370079000178 0 0 0
383 1 27.022713028053317 10.836027914275226 9.046676681559873 0 0 0
384 1 25.24775685451978 12.660162682398028 9.049894408634326 0 0 0
497 1 14.489413575500397 10.814646857304263 10.880201664780285 0 0 0
386 1 1.9439810646672049 1.732797524430152 10.788158027165453 0 0 0
496 1 12.663586787137582 10.8696503661751 12.753521897046296 0 0 0
388 1 0.07717223708862674 1.7785476388663413 12.536433154452139 0 0 0
389 1 3.6830203897302654 0.06542888171053472 10.726346741796089 0 0 0
390 1 3.5950496821908535 1.9190281739448918 12.652190862001033 0 0 0
391 1 28.739223579080253 3.6447035127167347 10.914824221364965 -1 0 0
392 1 1.782055649501572 3.6433651444094615 12.553961702310348 0 0 0
393 1 3.5446327849654455 3.6136720226877856 10.733747078154435 0 0 0
394 1 5.417513890886773 1.87926409848814 10.820168047722772 0 0 0
395 1 5.520852049484266 0.10076704638781651 12.609608478975591 0 0 0
495 1 12.585027197905882 12.57214013905915 10.704894669063703 0 0 0
397 1 7.264432215671028 1.7259143108118877 12.580518044695088 0 0 0
398 1 5.46069547610413 3.655451692881163 12.502545635213734 0 0 0
399 1 7.270725750286915 3.5850480511702485 10.835941189795308 0 0 0
400 1 9.117512110848093 1.794548897639053 10.870877685975733 0 0 0
401 1 9.100863893286089 0.004481431007532706 12.683282938124515 0 0 0
494 1 10.887266223371025 12.566100226058774 12.574131091823848 0 0 0
403 1 10.81229848941715 1.810176897754718 12.58073321661742 0 0 0
404 1 9.103119678793586 3.5479521736646333 12.627231105338815 0 0 0
405 1 10.851001492100673 3.6487549357972413 10.910568015351249 0 0 0
406 1 12.608525721247188 1.897491882218214 10.917054600995383 0 0 0
493 1 10.810914968577135 10.826564240671816 10.817970986357553 0 0 0
492 1 8.92088767712135 10.889951948848458 12.680995539671894 0 0 0
409 1 16.329907580514895 1.7973536676013382 10.830373660196049 0 0 0
491 1 9.086892106458906 12.656245654340609 10.678174626717341 0 0 0
411 1 14.403886194089267 1.6042778567637292 12.5968311836551 0 0 0
412 1 12.745143880714657 3.649025321344108 12.7962111562569 0 0 0
413 1 14.536986899969005 3.686385844062708 10.87589072800812 0 0 0
414 1 16.26592050944521 3.6130995113300637 12.60811188052072 0 0 0
415 1 18.079588708538633 0.0587818228122041 10.897116704291896 0 0 0
416 1 19.920589534944092 1.7934940878066015 10.820274394740059 0 0 0
490 1 7.205088793409775 12.782763092237674 12.597229466972804 0 0 0
418 1 18.04934291208472 1.8518847144318569 12.700894380274732 0 0 0
419 1 18.16262495299273 3.6278640649110887 10.843272362315416 0 0 0
420 1 19.933744568849335 3.5998008382102102 12.523969745150659 0 0 0
421 1 21.791156491883076 0.03345986655269251 10.862956381600586 0 0 0
422 1 23.53763138212276 1.751224711709225 10.81799579190571 0 0 0
489 1 7.242830613210079 10.876758394839412 10.804118181057476 0 0 0
424 1 21.82918538593348 1.7793883673489328 12.57649180040613 0 0 0
425 1 21.7528950911555 3.599354378813993 10.660925000564287 0 0 0
426 1 23.487179473880893 3.6636379273161115 12.624961230171813 0 0 0
427 1 25.190278843049416 0.01528817971047728 10.762673372085775 0 0 0
428 1 27.007685755720217 1.7265772371444101 10.881156144285958 0 0 0
429 1 27.055834917122343 0.0940446673685744 12.65366560827859 0 0 0
430 1 25.201112546689433 1.8452733480733647 12.71449059650831 0 0 0
431 1 25.325875586617823 3.6072426248444818 10.891861257918467 0 0 0
432 1 27.103146291199945 3.507968176713571 12.677035430837119 0 0 0
433 1 1.7124602748429483 5.431129017890605 10.771789264015057 0 0 0
434 1 28.89297503135137 5.387988998549582 12.718900863797526 -1 0 0
435 1 3.4403606168858896 5.383118283969713 12.55072950022567 0 0 0
436 1 28.84583851284948 7.2429028611341755 10.836605918645697 -1 0 0
437 1 1.7706159890718804 9.021404209121942 10.796344206772943 0 0 0
438 1 1.7499496605234774 7.316361317235653 12.659542799819741 0 0 0
439 1 28.873713047683754 9.079280835942322 12.68953872923222 -1 0 0
440 1 3.594922692735021 7.260083046373377 10.87560317608711 0 0 0
441 1 3.5526000098635104 9.108697403009316 12.594245623898743 0 0 0