LAMMPS (4 Feb 2025 - Development - )
Reading data file ...
  orthogonal box = (0 0 -1.1656272) to (36.15 36.15 362.81506)
  1 by 1 by 4 MPI processor grid
  reading atoms ...
  40200 atoms
  reading velocities ...
  40200 velocities
  read_data CPU = 1.549 seconds
200 atoms in group group_ignore_csp
ACE version: 2023.11.25
Recursive evaluator is used by ACE
Loading ../../../potentials/Cu-PBE-core-rep.ace
Total number of basis functions
	Cu: 16 (r=1) 726 (r>1)
Mapping LAMMPS atom type #1(Cu) -> ACE species type #0
atomic load lambda:
	fast potential: extract eam/apip:time_per_atom
	precise potential: extract pace/apip:time_per_atom
	lambda_input: extract lambda_input:time_per_atom
	lambda: extract lambda_zone:time_per_atom

CITE-CITE-CITE-CITE-CITE-CITE-CITE-CITE-CITE-CITE-CITE-CITE-CITE

Your simulation uses code contributions which should be cited:
- fix lambda command: doi.org/10.1063/5.0245877
The log file lists these citations in BibTeX format.

CITE-CITE-CITE-CITE-CITE-CITE-CITE-CITE-CITE-CITE-CITE-CITE-CITE

Neighbor list info ...
  update: every = 1 steps, delay = 0 steps, check = yes
  max neighbors/atom: 2000, page size: 100000
  master list distance cutoff = 14
  ghost atom cutoff = 14
  binsize = 7, bins = 6 6 52
  5 neighbor lists, perpetual/occasional/extra = 5 0 0
  (1) pair eam/fs/apip, perpetual
      attributes: full, newton on
      pair build: full/bin/atomonly
      stencil: full/bin/3d
      bin: standard
  (2) pair pace/apip, perpetual, trim from (4)
      attributes: full, newton on, cut 9.4
      pair build: trim
      stencil: none
      bin: none
  (3) pair lambda_input/csp, perpetual, trim from (2)
      attributes: full, newton on, cut 8
      pair build: trim
      stencil: none
      bin: none
  (4) pair lambda/zone, perpetual
      attributes: full, newton on, ghost, cut 14
      pair build: full/bin/ghost
      stencil: full/ghost/bin/3d
      bin: standard
  (5) fix lambda_thermostat, perpetual, copy from (1)
      attributes: full, newton on
      pair build: copy
      stencil: none
      bin: none
Setting up Verlet run ...
  Unit style    : metal
  Current step  : 0
  Time step     : 0.001
Per MPI rank memory allocation (min/avg/max) = 298.1 | 306.3 | 314.5 Mbytes
   Step       f_balance        S/CPU      f_weight_atom[1] f_weight_atom[2] f_weight_atom[3] f_weight_atom[4]
         0   1              0              0              0              0              0            
        10   1.0001725      1.7198837      5.5314343e-06  0.00025930431  2.7883957e-06  4.707143e-06 
        20   1.0001862      1.8265719      5.6099429e-06  0.00027931903  2.9758981e-06  5.002563e-06 
        30   1.00056        1.8317507      5.9076763e-06  0.0002894911   3.1109902e-06  5.1394341e-06
        40   1.0004862      2.5730799      6.243133e-06   0.00030439841  3.1674858e-06  3.784468e-06 
        50   1.0001422      1.7867846      6.1734458e-06  0.00029065411  3.1286655e-06  5.1705237e-06
        60   1.0008942      1.4365047      7.2226216e-06  0.00035501193  3.8052887e-06  6.42234e-06  
        70   1.0001463      1.9946081      8.1287731e-06  0.00038928999  4.1631973e-06  4.9840279e-06
        80   1.0004234      1.4099223      7.8487793e-06  0.00037185703  4.022587e-06   6.8562431e-06
        90   1.000166       1.6477504      1.1740135e-05  0.00039310073  4.5190508e-06  5.9037201e-06
       100   1.0004352      1.3977939      7.9664586e-06  0.00037057101  4.0412051e-06  6.8616558e-06
Loop time of 58.5219 on 4 procs for 100 steps with 40200 atoms

Performance: 0.148 ns/day, 162.561 hours/ns, 1.709 timesteps/s, 68.692 katom-step/s
99.7% CPU use with 4 MPI tasks x no OpenMP threads

MPI task timing breakdown:
Section |  min time  |  avg time  |  max time  |%varavg| %total
---------------------------------------------------------------
Pair    | 13.129     | 22.408     | 43.047     | 253.7 | 38.29
Neigh   | 2.9649     | 8.8754     | 14.209     | 175.4 | 15.17
Comm    | 4.4729     | 19.561     | 38.596     | 306.3 | 33.43
Output  | 0.0076245  | 0.28239    | 0.93926    |  72.3 |  0.48
Modify  | 1.0567     | 2.2026     | 4.445      |  92.5 |  3.76
Other   |            | 5.192      |            |       |  8.87

Nlocal:          10050 ave       16633 max        2176 min
Histogram: 1 0 1 0 0 0 0 0 0 2
Nghost:          27619 ave       42218 max        8849 min
Histogram: 1 0 0 1 0 0 0 0 0 2
Neighs:              0 ave           0 max           0 min
Histogram: 4 0 0 0 0 0 0 0 0 0
FullNghs:  9.49222e+06 ave 1.56603e+07 max 1.80672e+06 min
Histogram: 1 0 1 0 0 0 0 0 0 2

Total # of neighbors = 37968882
Ave neighs/atom = 944.49955
Neighbor list builds = 10
Dangerous builds = 0
Total wall time: 0:01:02
