LAMMPS (4 Feb 2025 - Development - )
Reading data file ...
  orthogonal box = (0 0 -1.1656272) to (36.15 36.15 362.81506)
  1 by 1 by 4 MPI processor grid
  reading atoms ...
  40200 atoms
  reading velocities ...
  40200 velocities
  read_data CPU = 1.141 seconds
200 atoms in group group_ignore_csp
ACE version: 2023.11.25
Recursive evaluator is used by ACE
Loading ../../../potentials/Cu-PBE-core-rep.ace
Total number of basis functions
	Cu: 16 (r=1) 726 (r>1)
Mapping LAMMPS atom type #1(Cu) -> ACE species type #0
atomic load lambda:
	fast potential: extract eam/apip:time_per_atom
	precise potential: extract pace/apip:time_per_atom
	lambda_input: extract lambda_input:time_per_atom
	lambda: extract lambda_zone:time_per_atom

CITE-CITE-CITE-CITE-CITE-CITE-CITE-CITE-CITE-CITE-CITE-CITE-CITE

Your simulation uses code contributions which should be cited:
- fix lambda command: doi.org/10.1063/5.0245877
The log file lists these citations in BibTeX format.

CITE-CITE-CITE-CITE-CITE-CITE-CITE-CITE-CITE-CITE-CITE-CITE-CITE

Neighbor list info ...
  update: every = 1 steps, delay = 0 steps, check = yes
  max neighbors/atom: 2000, page size: 100000
  master list distance cutoff = 14
  ghost atom cutoff = 14
  binsize = 7, bins = 6 6 52
  5 neighbor lists, perpetual/occasional/extra = 5 0 0
  (1) pair eam/fs/apip, perpetual
      attributes: full, newton on
      pair build: full/bin/atomonly
      stencil: full/bin/3d
      bin: standard
  (2) pair pace/apip, perpetual, trim from (4)
      attributes: full, newton on, cut 9.4
      pair build: trim
      stencil: none
      bin: none
  (3) pair lambda_input/csp, perpetual, trim from (2)
      attributes: full, newton on, cut 8
      pair build: trim
      stencil: none
      bin: none
  (4) pair lambda/zone, perpetual
      attributes: full, newton on, ghost, cut 14
      pair build: full/bin/ghost
      stencil: full/ghost/bin/3d
      bin: standard
  (5) fix lambda_thermostat, perpetual, copy from (1)
      attributes: full, newton on
      pair build: copy
      stencil: none
      bin: none
Setting up Verlet run ...
  Unit style    : metal
  Current step  : 0
  Time step     : 0.001
Per MPI rank memory allocation (min/avg/max) = 298.1 | 306.3 | 314.5 Mbytes
   Step       f_balance        S/CPU      f_weight_atom[1] f_weight_atom[2] f_weight_atom[3] f_weight_atom[4]
         0   1              0              0              0              0              0            
        10   1.0010585      1.8144651      5.3526071e-06  0.00025703793  2.7730117e-06  4.7190461e-06
        20   1.0016587      3.0895281      6.0547706e-06  0.00030627156  2.9311147e-06  2.8627034e-06
        30   1.0006595      2.1815977      7.7086095e-06  0.00034346642  3.4831025e-06  3.6494203e-06
        40   1.0003702      2.7847348      6.9889341e-06  0.00031605872  3.2092228e-06  2.9177266e-06
        50   1.0013639      2.8085372      7.1723284e-06  0.00032050748  3.2148509e-06  2.9280764e-06
        60   1.001567       2.7692583      7.3191318e-06  0.00032348311  3.2792367e-06  3.0731907e-06
        70   1.0008473      2.7848811      7.4547446e-06  0.00032207119  3.2487866e-06  3.0045227e-06
        80   1.0008791      2.1902426      8.8463371e-06  0.00037692301  3.878561e-06   3.5166374e-06
        90   1.0005633      2.0207998      1.0049193e-05  0.00043004983  4.4508803e-06  4.0369005e-06
       100   1.0011185      2.11148        9.5552543e-06  0.00040548477  4.282726e-06   4.0021617e-06
Loop time of 41.9356 on 4 procs for 100 steps with 40200 atoms

Performance: 0.206 ns/day, 116.488 hours/ns, 2.385 timesteps/s, 95.861 katom-step/s
99.2% CPU use with 4 MPI tasks x no OpenMP threads

MPI task timing breakdown:
Section |  min time  |  avg time  |  max time  |%varavg| %total
---------------------------------------------------------------
Pair    | 21.856     | 23.33      | 25.627     |  29.8 | 55.63
Neigh   | 12.078     | 12.235     | 12.335     |   2.8 | 29.18
Comm    | 1.8098     | 3.4438     | 5.8848     |  91.3 |  8.21
Output  | 0.0013883  | 0.0067437  | 0.010676   |   4.1 |  0.02
Modify  | 1.7044     | 1.8301     | 1.9304     |   7.0 |  4.36
Other   |            | 1.09       |            |       |  2.60

Nlocal:          10050 ave       10381 max        9892 min
Histogram: 1 2 0 0 0 0 0 0 0 1
Nghost:          52763 ave       52921 max       52432 min
Histogram: 1 0 0 0 0 0 0 0 2 1
Neighs:              0 ave           0 max           0 min
Histogram: 4 0 0 0 0 0 0 0 0 0
FullNghs:  9.49222e+06 ave 9.80751e+06 max 9.34231e+06 min
Histogram: 1 2 0 0 0 0 0 0 0 1

Total # of neighbors = 37968882
Ave neighs/atom = 944.49955
Neighbor list builds = 10
Dangerous builds = 0
Total wall time: 0:00:46
