ITEM: TIMESTEP
0
ITEM: NUMBER OF ATOMS
108
ITEM: BOX BOUNDS pp pp pp
0.0000000000000000e+00 5.0387885741475218e+00
0.0000000000000000e+00 5.0387885741475218e+00
0.0000000000000000e+00 5.0387885741475218e+00
ITEM: ATOMS id x y z v_xtrunc v_ytrunc v_ztrunc
1 0 0 0 0 0 0
2 0.839798 0.839798 0 0 0 0
3 0.839798 0 0.839798 0 0 0
4 0 0.839798 0.839798 0 0 0
5 1.6796 0 0 1 0 0
6 2.51939 0.839798 0 2 0 0
7 2.51939 0 0.839798 2 0 0
8 1.6796 0.839798 0.839798 1 0 0
9 3.35919 0 0 3 0 0
10 4.19899 0.839798 0 4 0 0
11 4.19899 0 0.839798 4 0 0
12 3.35919 0.839798 0.839798 3 0 0
13 0 1.6796 0 0 1 0
14 0.839798 2.51939 0 0 2 0
15 0.839798 1.6796 0.839798 0 1 0
16 0 2.51939 0.839798 0 2 0
17 1.6796 1.6796 0 1 1 0
18 2.51939 2.51939 0 2 2 0
19 2.51939 1.6796 0.839798 2 1 0
20 1.6796 2.51939 0.839798 1 2 0
21 3.35919 1.6796 0 3 1 0
22 4.19899 2.51939 0 4 2 0
23 4.19899 1.6796 0.839798 4 1 0
24 3.35919 2.51939 0.839798 3 2 0
25 0 3.35919 0 0 3 0
26 0.839798 4.19899 0 0 4 0
27 0.839798 3.35919 0.839798 0 3 0
28 0 4.19899 0.839798 0 4 0
29 1.6796 3.35919 0 1 3 0
30 2.51939 4.19899 0 2 4 0
31 2.51939 3.35919 0.839798 2 3 0
32 1.6796 4.19899 0.839798 1 4 0
33 3.35919 3.35919 0 3 3 0
34 4.19899 4.19899 0 4 4 0
35 4.19899 3.35919 0.839798 4 3 0
36 3.35919 4.19899 0.839798 3 4 0
37 0 0 1.6796 0 0 1
38 0.839798 0.839798 1.6796 0 0 1
39 0.839798 0 2.51939 0 0 2
40 0 0.839798 2.51939 0 0 2
41 1.6796 0 1.6796 1 0 1
42 2.51939 0.839798 1.6796 2 0 1
43 2.51939 0 2.51939 2 0 2
44 1.6796 0.839798 2.51939 1 0 2
45 3.35919 0 1.6796 3 0 1
46 4.19899 0.839798 1.6796 4 0 1
47 4.19899 0 2.51939 4 0 2
48 3.35919 0.839798 2.51939 3 0 2
49 0 1.6796 1.6796 0 1 1
50 0.839798 2.51939 1.6796 0 2 1
51 0.839798 1.6796 2.51939 0 1 2
52 0 2.51939 2.51939 0 2 2
53 1.6796 1.6796 1.6796 1 1 1
54 2.51939 2.51939 1.6796 2 2 1
55 2.51939 1.6796 2.51939 2 1 2
56 1.6796 2.51939 2.51939 1 2 2
57 3.35919 1.6796 1.6796 3 1 1
58 4.19899 2.51939 1.6796 4 2 1
59 4.19899 1.6796 2.51939 4 1 2
60 3.35919 2.51939 2.51939 3 2 2
61 0 3.35919 1.6796 0 3 1
62 0.839798 4.19899 1.6796 0 4 1
63 0.839798 3.35919 2.51939 0 3 2
64 0 4.19899 2.51939 0 4 2
65 1.6796 3.35919 1.6796 1 3 1
66 2.51939 4.19899 1.6796 2 4 1
67 2.51939 3.35919 2.51939 2 3 2
68 1.6796 4.19899 2.51939 1 4 2
69 3.35919 3.35919 1.6796 3 3 1
70 4.19899 4.19899 1.6796 4 4 1
71 4.19899 3.35919 2.51939 4 3 2
72 3.35919 4.19899 2.51939 3 4 2
73 0 0 3.35919 0 0 3
74 0.839798 0.839798 3.35919 0 0 3
75 0.839798 0 4.19899 0 0 4
76 0 0.839798 4.19899 0 0 4
77 1.6796 0 3.35919 1 0 3
78 2.51939 0.839798 3.35919 2 0 3
79 2.51939 0 4.19899 2 0 4
80 1.6796 0.839798 4.19899 1 0 4
81 3.35919 0 3.35919 3 0 3
82 4.19899 0.839798 3.35919 4 0 3
83 4.19899 0 4.19899 4 0 4
84 3.35919 0.839798 4.19899 3 0 4
85 0 1.6796 3.35919 0 1 3
86 0.839798 2.51939 3.35919 0 2 3
87 0.839798 1.6796 4.19899 0 1 4
88 0 2.51939 4.19899 0 2 4
89 1.6796 1.6796 3.35919 1 1 3
90 2.51939 2.51939 3.35919 2 2 3
91 2.51939 1.6796 4.19899 2 1 4
92 1.6796 2.51939 4.19899 1 2 4
93 3.35919 1.6796 3.35919 3 1 3
94 4.19899 2.51939 3.35919 4 2 3
95 4.19899 1.6796 4.19899 4 1 4
96 3.35919 2.51939 4.19899 3 2 4
97 0 3.35919 3.35919 0 3 3
98 0.839798 4.19899 3.35919 0 4 3
99 0.839798 3.35919 4.19899 0 3 4
100 0 4.19899 4.19899 0 4 4
101 1.6796 3.35919 3.35919 1 3 3
102 2.51939 4.19899 3.35919 2 4 3
103 2.51939 3.35919 4.19899 2 3 4
104 1.6796 4.19899 4.19899 1 4 4
105 3.35919 3.35919 3.35919 3 3 3
106 4.19899 4.19899 3.35919 4 4 3
107 4.19899 3.35919 4.19899 4 3 4
108 3.35919 4.19899 4.19899 3 4 4
ITEM: TIMESTEP
100
ITEM: NUMBER OF ATOMS
108
ITEM: BOX BOUNDS pp pp pp
0.0000000000000000e+00 5.0387885741475218e+00
0.0000000000000000e+00 5.0387885741475218e+00
0.0000000000000000e+00 5.0387885741475218e+00
ITEM: ATOMS id x y z v_xtrunc v_ytrunc v_ztrunc
1 4.97801 0.0605812 4.88474 4 0 4
2 0.800305 0.813213 0.0576603 0 0 0
3 0.6485 5.00484 0.836947 0 5 0
4 5.01236 0.786108 0.77507 5 0 0
5 1.50261 4.9277 4.9755 1 4 4
6 2.46756 0.653742 5.0003 2 0 5
7 2.55699 4.96491 0.926671 2 4 0
8 1.62464 0.676882 0.777822 1 0 0
9 3.57018 0.00324557 4.76943 3 0 4
10 4.24909 0.985667 5.01613 4 0 5
11 4.13124 0.178555 0.700886 4 0 0
12 3.22537 0.963341 0.639686 3 0 0
13 4.90815 1.75715 0.0826318 4 1 0
14 1.00239 2.45421 0.0111309 1 2 0
15 0.88902 1.62097 0.874547 0 1 0
16 0.269512 2.41383 0.844638 0 2 0
17 1.54513 1.51174 0.0869798 1 1 0
18 2.0637 2.5991 0.0826392 2 2 0
19 2.44634 1.71869 0.918144 2 1 0
20 1.57997 2.52559 1.04361 1 2 1
21 3.26063 2.10027 0.0160498 3 2 0
22 4.21774 2.61172 0.0367453 4 2 0
23 4.32215 1.8333 0.925663 4 1 0
24 3.38151 2.6788 0.906258 3 2 0
25 0.275459 3.26838 0.21932 0 3 0
26 0.675354 4.14887 4.94054 0 4 4
27 0.867201 3.35405 1.17655 0 3 1
28 4.78788 4.34273 0.478103 4 4 0
29 1.42014 3.50181 0.191388 1 3 0
30 2.39935 4.14279 0.0726977 2 4 0
31 2.68157 3.57418 0.921633 2 3 0
32 1.77965 4.13041 0.925765 1 4 0
33 3.10555 3.22911 5.00703 3 3 5
34 4.24908 3.67507 4.83053 4 3 4
35 4.2444 3.59428 0.837193 4 3 0
36 3.52155 4.21032 0.423884 3 4 0
37 0.00881412 4.90616 1.74242 0 4 1
38 0.800033 0.812556 1.72553 0 0 1
39 0.929754 0.0251285 2.53734 0 0 2
40 0.0189933 0.897729 2.4272 0 0 2
41 1.77025 0.0864618 1.69637 1 0 1
42 2.6077 0.984882 1.7897 2 0 1
43 2.55819 4.95626 2.45373 2 4 2
44 1.77963 0.875522 2.5056 1 0 2
45 3.50499 0.0189748 1.5186 3 0 1
46 4.47856 0.849521 1.59138 4 0 1
47 3.99 0.309367 2.42507 3 0 2
48 3.06373 0.748905 2.87477 3 0 2
49 0.149175 1.72252 1.81302 0 1 1
50 0.963279 2.42412 1.76899 0 2 1
51 0.879984 1.74899 2.55389 0 1 2
52 0.211736 2.57456 2.48446 0 2 2
53 1.75238 1.7433 1.79028 1 1 1
54 2.61023 2.6802 1.55816 2 2 1
55 2.55259 1.72904 2.60295 2 1 2
56 1.7903 2.56204 2.41895 1 2 2
57 3.43857 1.71819 1.54054 3 1 1
58 4.20455 2.5331 1.87607 4 2 1
59 4.12961 1.48438 2.40107 4 1 2
60 3.36606 2.52455 2.67203 3 2 2
61 0.0138563 3.23504 1.76147 0 3 1
62 0.968224 4.42746 1.67526 0 4 1
63 0.965745 3.43479 2.52674 0 3 2
64 0.144542 4.27264 2.61793 0 4 2
65 1.7741 3.32184 1.66819 1 3 1
66 2.4878 4.29352 1.69069 2 4 1
67 2.56992 3.44579 2.4534 2 3 2
68 1.72356 4.2344 2.49376 1 4 2
69 3.43363 3.36417 1.87451 3 3 1
70 4.32623 4.1046 1.69102 4 4 1
71 4.22927 3.23505 2.64208 4 3 2
72 3.41086 4.28362 2.42553 3 4 2
73 4.85349 0.0953155 3.14546 4 0 3
74 0.833593 0.840282 3.27238 0 0 3
75 0.578712 4.99093 3.85234 0 4 3
76 0.119704 1.00404 4.09942 0 1 4
77 1.78347 4.95586 3.31184 1 4 3
78 2.34318 0.736887 3.54475 2 0 3
79 2.34858 4.82316 4.28272 2 4 4
80 1.55893 0.765128 4.31112 1 0 4
81 3.13128 0.0257347 3.70936 3 0 3
82 4.10851 0.877375 3.36388 4 0 3
83 4.30691 4.69041 4.14081 4 4 4
84 3.48471 1.07347 4.35888 3 1 4
85 0.0668209 1.77975 3.29313 0 1 3
86 0.894798 2.5043 3.34172 0 2 3
87 0.743432 1.71961 4.3483 0 1 4
88 0.135168 2.69084 4.12098 0 2 4
89 1.73749 1.5259 3.46692 1 1 3
90 2.47391 2.57508 3.27574 2 2 3
91 2.4825 1.46064 4.38907 2 1 4
92 1.67786 2.47309 4.03082 1 2 4
93 3.34694 1.70248 3.44784 3 1 3
94 4.20676 2.29697 3.23228 4 2 3
95 4.31748 1.76411 4.20898 4 1 4
96 3.1135 2.59262 4.08996 3 2 4
97 0.0727406 3.44797 3.30247 0 3 3
98 1.0752 4.05296 3.38036 1 4 3
99 1.0085 3.35058 4.3598 1 3 4
100 0.054939 4.00087 4.11831 0 4 4
101 1.72259 3.24691 3.19685 1 3 3
102 2.54324 4.21582 3.29642 2 4 3
103 2.33008 3.38603 4.27885 2 3 4
104 1.65617 4.10852 4.3491 1 4 4
105 3.14646 3.43756 3.28105 3 3 3
106 4.09781 4.10691 3.24439 4 4 3
107 4.1529 3.22538 3.79605 4 3 3
108 3.16394 3.96553 4.31023 3 3 4
