LAMMPS (2 Apr 2025 - Development - 09d3ac0a1b-modified)
OMP_NUM_THREADS environment is not set. Defaulting to 1 thread. (src/comm.cpp:99)
  using 1 OpenMP thread(s) per MPI task
# GJ thermostat

units   	metal
atom_style      full

boundary 	p p p
read_data argon.lmp
Reading data file ...
  orthogonal box = (0 0 0) to (32.146 32.146 32.146)
  1 by 2 by 2 MPI processor grid
  reading atoms ...
  864 atoms
Finding 1-2 1-3 1-4 neighbors ...
  special bond factors lj:    0        0        0       
  special bond factors coul:  0        0        0       
     0 = max # of 1-2 neighbors
     0 = max # of 1-3 neighbors
     0 = max # of 1-4 neighbors
     1 = max # of special neighbors
  special bonds CPU = 0.002 seconds
  read_data CPU = 0.014 seconds
include ff-argon.lmp
#############################
#Atoms types - mass - charge#
#############################
#@ 1 atom types #!THIS LINE IS NECESSARY DON'T SPEND HOURS FINDING THAT OUT!#

variable Ar equal 1

#############
#Atom Masses#
#############

mass ${Ar}      39.903
mass 1      39.903

###########################
#Pair Potentials - Tersoff#
###########################

pair_style      lj/cubic
pair_coeff      * * 0.0102701 3.42


velocity all create 10 2357 mom yes dist gaussian
neighbor 1 bin

timestep 0.1

compute myKE all ke
compute myPE all pe

fix lang all langevin/gjf 10 10 1 26488

run 5000

CITE-CITE-CITE-CITE-CITE-CITE-CITE-CITE-CITE-CITE-CITE-CITE-CITE

Your simulation uses code contributions which should be cited:

- Langevin GJ methods: doi:10.1080/00268976.2019.1662506

@Article{gronbech-jensen_complete_2020,
title = {Complete set of stochastic Verlet-type thermostats for correct Langevin simulations},
volume = {118},
number = {8},
url = {https://www.tandfonline.com/doi/full/10.1080/00268976.2019.1662506},
doi = {10.1080/00268976.2019.1662506},
journal = {Molecular Physics},
author = {Grønbech-Jensen, Niels},
year = {2020},
}

CITE-CITE-CITE-CITE-CITE-CITE-CITE-CITE-CITE-CITE-CITE-CITE-CITE

Generated 0 of 0 mixed pair_coeff terms from geometric mixing rule
Neighbor list info ...
  update: every = 1 steps, delay = 0 steps, check = yes
  max neighbors/atom: 2000, page size: 100000
  master list distance cutoff = 6.9407173
  ghost atom cutoff = 6.9407173
  binsize = 3.4703587, bins = 10 10 10
  1 neighbor lists, perpetual/occasional/extra = 1 0 0
  (1) pair lj/cubic, perpetual
      attributes: half, newton on
      pair build: half/bin/newton
      stencil: half/bin/3d
      bin: standard
Per MPI rank memory allocation (min/avg/max) = 6.427 | 6.427 | 6.427 Mbytes
   Step          Temp          E_pair         E_mol          TotEng         Press     
         0   10            -56.207652      0             -55.092137      33.341103    
      5000   9.3726166     -55.076514      0             -54.030985      342.43571    
Loop time of 2.09273 on 4 procs for 5000 steps with 864 atoms

Performance: 20642.908 ns/day, 0.001 hours/ns, 2389.226 timesteps/s, 2.064 Matom-step/s
62.7% CPU use with 4 MPI tasks x 1 OpenMP threads

MPI task timing breakdown:
Section |  min time  |  avg time  |  max time  |%varavg| %total
---------------------------------------------------------------
Pair    | 0.53092    | 0.54173    | 0.55017    |   1.0 | 25.89
Bond    | 0.00049283 | 0.00052862 | 0.00057217 |   0.0 |  0.03
Neigh   | 0.10693    | 0.11084    | 0.1158     |   1.0 |  5.30
Comm    | 0.95622    | 0.96088    | 0.96553    |   0.4 | 45.92
Output  | 0.00027302 | 0.00027645 | 0.00028114 |   0.0 |  0.01
Modify  | 0.2615     | 0.26289    | 0.2635     |   0.2 | 12.56
Other   |            | 0.2156     |            |       | 10.30

Nlocal:            216 ave         216 max         216 min
Histogram: 4 0 0 0 0 0 0 0 0 0
Nghost:         884.75 ave         885 max         884 min
Histogram: 1 0 0 0 0 0 0 0 0 3
Neighs:           4536 ave        4737 max        4335 min
Histogram: 2 0 0 0 0 0 0 0 0 2

Total # of neighbors = 18144
Ave neighs/atom = 21
Ave special neighs/atom = 0
Neighbor list builds = 273
Dangerous builds = 0

fix energies all ave/time 1 20000 20000 c_myKE c_myPE file ave.out

thermo 2000
run 35000
Generated 0 of 0 mixed pair_coeff terms from geometric mixing rule
Per MPI rank memory allocation (min/avg/max) = 6.428 | 6.428 | 6.428 Mbytes
   Step          Temp          E_pair         E_mol          TotEng         Press     
      5000   9.3726166     -55.076514      0             -54.030985      342.43571    
      6000   9.6911866     -55.129244      0             -54.048177      329.72537    
      8000   9.7296551     -55.101417      0             -54.016059      337.46595    
     10000   10.098808     -55.083292      0             -53.956755      343.4122     
     12000   10.114344     -55.090905      0             -53.962635      341.3438     
     14000   10.230012     -55.085051      0             -53.943878      342.45237    
     16000   9.5989709     -55.090733      0             -54.019954      339.07584    
     18000   10.016071     -55.030131      0             -53.912824      358.79514    
     20000   9.7197057     -55.104072      0             -54.019824      335.89619    
     22000   9.959647      -55.152019      0             -54.041005      323.05805    
     24000   10.075138     -55.115242      0             -53.991345      334.76239    
     26000   10.227192     -55.125275      0             -53.984416      332.10131    
     28000   10.177109     -55.107097      0             -53.971825      337.32979    
     30000   9.521036      -55.099011      0             -54.036925      337.10716    
     32000   10.265633     -55.077016      0             -53.93187       346.01018    
     34000   10.173978     -55.097068      0             -53.962146      339.63562    
     36000   9.6032778     -55.152202      0             -54.080942      321.61646    
     38000   9.8802995     -55.048407      0             -53.946245      351.82506    
     40000   10.372288     -55.087634      0             -53.93059       343.34304    
Loop time of 17.6209 on 4 procs for 35000 steps with 864 atoms

Performance: 17161.415 ns/day, 0.001 hours/ns, 1986.275 timesteps/s, 1.716 Matom-step/s
64.2% CPU use with 4 MPI tasks x 1 OpenMP threads

MPI task timing breakdown:
Section |  min time  |  avg time  |  max time  |%varavg| %total
---------------------------------------------------------------
Pair    | 5.0439     | 5.1029     | 5.1534     |   2.0 | 28.96
Bond    | 0.0031373  | 0.0034925  | 0.0038794  |   0.5 |  0.02
Neigh   | 0.84082    | 0.87558    | 0.91665    |   3.0 |  4.97
Comm    | 6.7337     | 6.7936     | 6.8487     |   1.6 | 38.55
Output  | 0.0044073  | 0.004559   | 0.0049773  |   0.4 |  0.03
Modify  | 3.3556     | 3.3647     | 3.3722     |   0.3 | 19.10
Other   |            | 1.476      |            |       |  8.38

Nlocal:            216 ave         222 max         210 min
Histogram: 2 0 0 0 0 0 0 0 0 2
Nghost:          905.5 ave         911 max         899 min
Histogram: 1 1 0 0 0 0 0 0 0 2
Neighs:        4535.75 ave        4837 max        4218 min
Histogram: 1 0 0 1 0 0 1 0 0 1

Total # of neighbors = 18143
Ave neighs/atom = 20.998843
Ave special neighs/atom = 0
Neighbor list builds = 2140
Dangerous builds = 0
Total wall time: 0:00:19
