LAMMPS (2 Apr 2025 - Development - patch_2Apr2025-384-g88bc7dc720-modified)
  using 1 OpenMP thread(s) per MPI task
# May 2025
# Test script for MD-KMC accelerated diffusion testing in LAMMPS
# Created by Jacob Tavenner, Baylor University

# Initiation -------------------------------------
units		metal
dimension	3
boundary	p p p
atom_style	atomic


# Atom Definition --------------------------------
lattice	fcc 3.762
Lattice spacing in x,y,z = 3.762 3.762 3.762
region		whole block 0 1 0 1 0 1
create_box	2 whole
Created orthogonal box = (0 0 0) to (3.762 3.762 3.762)
  1 by 2 by 2 MPI processor grid
create_atoms	1 region whole
Created 4 atoms
  using lattice units in orthogonal box = (0 0 0) to (3.762 3.762 3.762)
  create_atoms CPU = 0.000 seconds

replicate 6 16 6
Replication is creating a 6x16x6 = 576 times larger system...
  orthogonal box = (0 0 0) to (22.572 60.192 22.572)
  1 by 4 by 1 MPI processor grid
  2304 atoms
  replicate CPU = 0.000 seconds

region      puck block INF INF INF 2 INF INF
set         region puck type 2
Setting atom values ...
  360 settings made for type

# Force Fields -----------------------------------
pair_style	meam
pair_coeff	* * library_2nn.meam Mo Co Ni V Fe Al Cr MoCoNiVFeAlCr_2nn.meam Ni Cr
Reading MEAM library file library_2nn.meam with DATE: 2024-08-08
Reading MEAM potential file MoCoNiVFeAlCr_2nn.meam with DATE: 2024-08-08

# Settings ---------------------------------------
timestep	0.002
thermo		100

# Computations -----------------------------------
compute		voroN all voronoi/atom neighbors yes

run		0
WARNING: No fixes with time integration, atoms won't move
For more information see https://docs.lammps.org/err0028 (src/verlet.cpp:60)
Neighbor list info ...
  update: every = 1 steps, delay = 0 steps, check = yes
  max neighbors/atom: 2000, page size: 100000
  master list distance cutoff = 6.8
  ghost atom cutoff = 6.8
  binsize = 3.4, bins = 7 18 7
  2 neighbor lists, perpetual/occasional/extra = 2 0 0
  (1) pair meam, perpetual
      attributes: full, newton on
      pair build: full/bin/atomonly
      stencil: full/bin/3d
      bin: standard
  (2) pair meam, perpetual, half/full from (1)
      attributes: half, newton on
      pair build: halffull/newton
      stencil: none
      bin: none
Per MPI rank memory allocation (min/avg/max) = 9.636 | 9.636 | 9.636 Mbytes
   Step          Temp          E_pair         E_mol          TotEng         Press     
         0   0             -9674.3728      0             -9674.3728     -212400.94    
Loop time of 1.53e-06 on 4 procs for 0 steps with 2304 atoms

65.4% CPU use with 4 MPI tasks x 1 OpenMP threads

MPI task timing breakdown:
Section |  min time  |  avg time  |  max time  |%varavg| %total
---------------------------------------------------------------
Pair    | 0          | 0          | 0          |   0.0 |  0.00
Neigh   | 0          | 0          | 0          |   0.0 |  0.00
Comm    | 0          | 0          | 0          |   0.0 |  0.00
Output  | 0          | 0          | 0          |   0.0 |  0.00
Modify  | 0          | 0          | 0          |   0.0 |  0.00
Other   |            | 1.53e-06   |            |       |100.00

Nlocal:            576 ave         576 max         576 min
Histogram: 4 0 0 0 0 0 0 0 0 0
Nghost:           2131 ave        2131 max        2131 min
Histogram: 4 0 0 0 0 0 0 0 0 0
Neighs:          24768 ave       24768 max       24768 min
Histogram: 4 0 0 0 0 0 0 0 0 0
FullNghs:        49536 ave       49536 max       49536 min
Histogram: 4 0 0 0 0 0 0 0 0 0

Total # of neighbors = 198144
Ave neighs/atom = 86
Neighbor list builds = 0
Dangerous builds = 0
thermo_style	custom step temp press pxx pyy pzz lx ly lz vol pe

# Execution --------------------------------------

velocity    all create 2400 908124 loop geom
fix         temp all npt temp 1000 1000 1000 aniso 0 0 1
fix         mc all neighbor/swap 50 12 1340723 1000 3 voroN diff 2
thermo_style	custom step temp press pxx pyy pzz lx ly lz vol pe f_mc[*]
#dump		dump2 all custom 5000 dump.edge-3_Ni-Cr.* id type x y z c_eng c_csym

run 1000
Per MPI rank memory allocation (min/avg/max) = 9.636 | 9.636 | 9.636 Mbytes
   Step          Temp          Press           Pxx            Pyy            Pzz             Lx             Ly             Lz           Volume         PotEng        f_mc[1]        f_mc[2]    
         0   2400          -187517.52     -187464.47     -188202.62     -186885.48      22.572         60.192         22.572         30667.534     -9674.3728      0              0            
       100   1665.569       14271.813      14638.855      14316.569      13860.016      21.63675       57.721065      21.637799      27023.366     -9594.291       24             24           
       200   1598.6479     -6990.8349     -8574.1986     -5033.6147     -7364.6916      21.708963      58.123129      21.724821      27412.223     -9575.7322      48             47           
       300   1604.388       456.43285      1926.408      -1214.1721      657.0626       21.673369      58.090421      21.671716      27285.018     -9577.698       72             70           
       400   1601.1591      1303.6721      703.88473      1137.6607      2069.471       21.684004      58.049595      21.671161      27278.522     -9576.4811      96             94           
       500   1623.6044     -2243.2478     -2084.532       320.87709     -4966.0885      21.686171      58.097101      21.695911      27334.758     -9583.1878      120            118          
       600   1587.2041      421.60034      190.88741     -328.76599      1402.6796      21.712439      58.086039      21.655927      27312.229     -9572.559       144            141          
       700   1591.2923      32.327829     -2893.2353      1839.7574      1150.4614      21.719102      57.999862      21.666164      27292.974     -9573.9009      168            165          
       800   1580.8587     -105.51079      654.26389     -160.04168     -810.75457      21.670225      58.109245      21.684683      27306.229     -9570.6482      192            186          
       900   1570.7648      1290.088       1252.3689      255.62548      2362.2695      21.68101       58.100507      21.658755      27283.051     -9567.9864      216            209          
      1000   1598.1483     -125.35291     -3626.5479      3404.789      -154.29983      21.720146      57.952942      21.686111      27297.313     -9576.2975      240            231          
Loop time of 9.17241 on 4 procs for 1000 steps with 2304 atoms

Performance: 18.839 ns/day, 1.274 hours/ns, 109.023 timesteps/s, 251.188 katom-step/s
98.1% CPU use with 4 MPI tasks x 1 OpenMP threads

MPI task timing breakdown:
Section |  min time  |  avg time  |  max time  |%varavg| %total
---------------------------------------------------------------
Pair    | 7.7477     | 8.0143     | 8.1344     |   5.5 | 87.37
Neigh   | 0.050543   | 0.056882   | 0.05986    |   1.6 |  0.62
Comm    | 0.069784   | 0.16898    | 0.40996    |  34.2 |  1.84
Output  | 0.00015612 | 0.0001707  | 0.00021249 |   0.0 |  0.00
Modify  | 0.90628    | 0.93003    | 0.96157    |   2.2 | 10.14
Other   |            | 0.002053   |            |       |  0.02

Nlocal:            576 ave         614 max         505 min
Histogram: 1 0 0 0 0 0 1 0 0 2
Nghost:        2165.75 ave        2204 max        2132 min
Histogram: 1 0 0 0 2 0 0 0 0 1
Neighs:        32430.8 ave       35552 max       26564 min
Histogram: 1 0 0 0 0 0 1 0 0 2
FullNghs:      64861.5 ave       71111 max       53164 min
Histogram: 1 0 0 0 0 0 1 0 0 2

Total # of neighbors = 259446
Ave neighs/atom = 112.60677
Neighbor list builds = 62
Dangerous builds = 0

#write_data	pulse_end.data
Total wall time: 0:00:09
