LAMMPS (4 Feb 2025 - Development - patch_4Feb2025-583-g3d4b57d7fd-modified)
##################################### SIMULATION SETTINGS ###################################################

atom_style sphere 1
atom_modify map array
comm_modify vel yes
units si
newton off
neighbor      1.0e-3 bin
neigh_modify every 10 delay 60 check no
timestep 4e-6
#processors 2 2 1

############################## SIMULATION BOUNDING BOX AND INSERT PARTICLES #################################

boundary f f f
read_data spheres200.data
Reading data file ...
  orthogonal box = (-0.005 -0.005 -0.001) to (0.005 0.005 0.02)
  1 by 1 by 1 MPI processor grid
  reading atoms ...
  200 atoms
  read_data CPU = 0.003 seconds

#################################### ADD DIE AND ATOM PARAMETERIZATION ######################################

variable atomRadius    equal 0.44e-3*1.25
variable atomDiameter  equal 2*${atomRadius}
variable atomDiameter  equal 2*0.00055
variable atomDensity   equal 1560
variable atomMassAvg   equal ${atomDensity}*4.0/3.0*PI*${atomRadius}^3.0
variable atomMassAvg   equal 1560*4.0/3.0*PI*${atomRadius}^3.0
variable atomMassAvg   equal 1560*4.0/3.0*PI*0.00055^3.0
variable dieRadius     equal 4e-3
variable dieHeight     equal 1e-2

############################## PARTICLE MATERIAL PROPERTIES AND FORCE MODEL ##################################

pair_style granular

# mdr = E, nu, Y, gamma, psi_b, damp
variable YoungsModulus      equal 5e6
variable YieldStress        equal 1.9e5
variable PoissonsRatio      equal 0.4
variable SurfaceEnergy      equal 2
variable SurfaceEnergyWall  equal 0.0
variable damp               equal 1.0
variable psi_b              equal 0.5

# linear_history = k_t, x_gammat, mu_s
variable kt         equal 2/7*${YoungsModulus}*${atomRadius}
variable kt         equal 2/7*5000000*${atomRadius}
variable kt         equal 2/7*5000000*0.00055
variable kt_wall    equal 2/7*${YoungsModulus}*${atomRadius}
variable kt_wall    equal 2/7*5000000*${atomRadius}
variable kt_wall    equal 2/7*5000000*0.00055
variable xgammat    equal 1.0
variable mu_s       equal 0.7
variable mu_s_wall  equal 0.1

# sds = mu_roll, k_roll, gamma_roll
variable mu_roll     equal 0.6
variable k_roll      equal 2.25*${mu_roll}*${mu_roll}*${YoungsModulus}*${atomRadius}
variable k_roll      equal 2.25*0.6*${mu_roll}*${YoungsModulus}*${atomRadius}
variable k_roll      equal 2.25*0.6*0.6*${YoungsModulus}*${atomRadius}
variable k_roll      equal 2.25*0.6*0.6*5000000*${atomRadius}
variable k_roll      equal 2.25*0.6*0.6*5000000*0.00055
variable gamma_roll  equal 0.0

pair_coeff * * mdr ${YoungsModulus} ${PoissonsRatio} ${YieldStress} ${SurfaceEnergy} ${psi_b} ${damp}     damping mdr     tangential linear_history ${kt} ${xgammat} ${mu_s}     rolling sds ${k_roll} ${gamma_roll} ${mu_roll}
pair_coeff * * mdr 5000000 ${PoissonsRatio} ${YieldStress} ${SurfaceEnergy} ${psi_b} ${damp}     damping mdr     tangential linear_history ${kt} ${xgammat} ${mu_s}     rolling sds ${k_roll} ${gamma_roll} ${mu_roll}
pair_coeff * * mdr 5000000 0.4 ${YieldStress} ${SurfaceEnergy} ${psi_b} ${damp}     damping mdr     tangential linear_history ${kt} ${xgammat} ${mu_s}     rolling sds ${k_roll} ${gamma_roll} ${mu_roll}
pair_coeff * * mdr 5000000 0.4 190000 ${SurfaceEnergy} ${psi_b} ${damp}     damping mdr     tangential linear_history ${kt} ${xgammat} ${mu_s}     rolling sds ${k_roll} ${gamma_roll} ${mu_roll}
pair_coeff * * mdr 5000000 0.4 190000 2 ${psi_b} ${damp}     damping mdr     tangential linear_history ${kt} ${xgammat} ${mu_s}     rolling sds ${k_roll} ${gamma_roll} ${mu_roll}
pair_coeff * * mdr 5000000 0.4 190000 2 0.5 ${damp}     damping mdr     tangential linear_history ${kt} ${xgammat} ${mu_s}     rolling sds ${k_roll} ${gamma_roll} ${mu_roll}
pair_coeff * * mdr 5000000 0.4 190000 2 0.5 1     damping mdr     tangential linear_history ${kt} ${xgammat} ${mu_s}     rolling sds ${k_roll} ${gamma_roll} ${mu_roll}
pair_coeff * * mdr 5000000 0.4 190000 2 0.5 1     damping mdr     tangential linear_history 785.714285714286 ${xgammat} ${mu_s}     rolling sds ${k_roll} ${gamma_roll} ${mu_roll}
pair_coeff * * mdr 5000000 0.4 190000 2 0.5 1     damping mdr     tangential linear_history 785.714285714286 1 ${mu_s}     rolling sds ${k_roll} ${gamma_roll} ${mu_roll}
pair_coeff * * mdr 5000000 0.4 190000 2 0.5 1     damping mdr     tangential linear_history 785.714285714286 1 0.7     rolling sds ${k_roll} ${gamma_roll} ${mu_roll}
pair_coeff * * mdr 5000000 0.4 190000 2 0.5 1     damping mdr     tangential linear_history 785.714285714286 1 0.7     rolling sds 2227.5 ${gamma_roll} ${mu_roll}
pair_coeff * * mdr 5000000 0.4 190000 2 0.5 1     damping mdr     tangential linear_history 785.714285714286 1 0.7     rolling sds 2227.5 0 ${mu_roll}
pair_coeff * * mdr 5000000 0.4 190000 2 0.5 1     damping mdr     tangential linear_history 785.714285714286 1 0.7     rolling sds 2227.5 0 0.6

######################################### ADD DIE AND PUNCH WALLS ############################################

variable disp_upper      equal 0.0
variable disp_lower      equal 0.0

variable wall_contact_string string "granular mdr ${YoungsModulus} ${PoissonsRatio} ${YieldStress} ${SurfaceEnergyWall} ${psi_b} ${damp}  damping mdr tangential linear_history ${kt_wall} ${xgammat} ${mu_s_wall} rolling sds ${k_roll} ${gamma_roll} ${mu_roll}"
granular mdr 5000000 ${PoissonsRatio} ${YieldStress} ${SurfaceEnergyWall} ${psi_b} ${damp}  damping mdr tangential linear_history ${kt_wall} ${xgammat} ${mu_s_wall} rolling sds ${k_roll} ${gamma_roll} ${mu_roll}
granular mdr 5000000 0.4 ${YieldStress} ${SurfaceEnergyWall} ${psi_b} ${damp}  damping mdr tangential linear_history ${kt_wall} ${xgammat} ${mu_s_wall} rolling sds ${k_roll} ${gamma_roll} ${mu_roll}
granular mdr 5000000 0.4 190000 ${SurfaceEnergyWall} ${psi_b} ${damp}  damping mdr tangential linear_history ${kt_wall} ${xgammat} ${mu_s_wall} rolling sds ${k_roll} ${gamma_roll} ${mu_roll}
granular mdr 5000000 0.4 190000 0 ${psi_b} ${damp}  damping mdr tangential linear_history ${kt_wall} ${xgammat} ${mu_s_wall} rolling sds ${k_roll} ${gamma_roll} ${mu_roll}
granular mdr 5000000 0.4 190000 0 0.5 ${damp}  damping mdr tangential linear_history ${kt_wall} ${xgammat} ${mu_s_wall} rolling sds ${k_roll} ${gamma_roll} ${mu_roll}
granular mdr 5000000 0.4 190000 0 0.5 1  damping mdr tangential linear_history ${kt_wall} ${xgammat} ${mu_s_wall} rolling sds ${k_roll} ${gamma_roll} ${mu_roll}
granular mdr 5000000 0.4 190000 0 0.5 1  damping mdr tangential linear_history 785.714285714286 ${xgammat} ${mu_s_wall} rolling sds ${k_roll} ${gamma_roll} ${mu_roll}
granular mdr 5000000 0.4 190000 0 0.5 1  damping mdr tangential linear_history 785.714285714286 1 ${mu_s_wall} rolling sds ${k_roll} ${gamma_roll} ${mu_roll}
granular mdr 5000000 0.4 190000 0 0.5 1  damping mdr tangential linear_history 785.714285714286 1 0.1 rolling sds ${k_roll} ${gamma_roll} ${mu_roll}
granular mdr 5000000 0.4 190000 0 0.5 1  damping mdr tangential linear_history 785.714285714286 1 0.1 rolling sds 2227.5 ${gamma_roll} ${mu_roll}
granular mdr 5000000 0.4 190000 0 0.5 1  damping mdr tangential linear_history 785.714285714286 1 0.1 rolling sds 2227.5 0 ${mu_roll}
granular mdr 5000000 0.4 190000 0 0.5 1  damping mdr tangential linear_history 785.714285714286 1 0.1 rolling sds 2227.5 0 0.6

variable dieHeight2 equal 2*${dieHeight}
variable dieHeight2 equal 2*0.01

region lowerPunch plane 0 0 0 0 0 1 side in units box move NULL NULL v_disp_lower units box
region upperPunch plane 0 0 ${dieHeight} 0 0 -1 side in move NULL NULL v_disp_upper units box
region upperPunch plane 0 0 0.01 0 0 -1 side in move NULL NULL v_disp_upper units box
region die cylinder z 0 0 ${dieRadius} 0 ${dieHeight2} side in units box
region die cylinder z 0 0 0.004 0 ${dieHeight2} side in units box
region die cylinder z 0 0 0.004 0 0.02 side in units box

fix lowerPunch all wall/gran/region ${wall_contact_string} region lowerPunch contacts
fix lowerPunch all wall/gran/region granular mdr 5000000 0.4 190000 0 0.5 1  damping mdr tangential linear_history 785.714285714286 1 0.1 rolling sds 2227.5 0 0.6 region lowerPunch contacts
fix upperPunch all wall/gran/region ${wall_contact_string} region upperPunch contacts
fix upperPunch all wall/gran/region granular mdr 5000000 0.4 190000 0 0.5 1  damping mdr tangential linear_history 785.714285714286 1 0.1 rolling sds 2227.5 0 0.6 region upperPunch contacts
fix die all wall/gran/region ${wall_contact_string} region die contacts
fix die all wall/gran/region granular mdr 5000000 0.4 190000 0 0.5 1  damping mdr tangential linear_history 785.714285714286 1 0.1 rolling sds 2227.5 0 0.6 region die contacts

compute avgUpperPunchForce all reduce sum f_upperPunch[4]
variable avgUpperPunchForce equal c_avgUpperPunchForce
compute avgLowerPunchForce all reduce sum f_lowerPunch[4]
variable avgLowerPunchForce equal c_avgLowerPunchForce

#fix printFD all print 1 "${disp_upper} ${avgUpperPunchForce} ${avgLowerPunchForce}" file punch_force_disp_tableting200.csv screen no

##################################### INTEGRATION AND GRAVITY #################################################

fix 1 all nve/sphere
fix grav all gravity 9.81 vector 0 0 -1

########################################### SCREEN OUTPUT  ####################################################

compute       1 all erotate/sphere
thermo_style  custom dt step atoms ke vol v_disp_upper
thermo        100
thermo_modify lost ignore norm no

##################################### SET UP DUMP OUTPUTS  ####################################################

compute ke all ke/atom
variable output_rate equal round(1e-3/dt)

run 0

CITE-CITE-CITE-CITE-CITE-CITE-CITE-CITE-CITE-CITE-CITE-CITE-CITE

Your simulation uses code contributions which should be cited:

- MDR contact model command: (i) https://doi.org/10.1016/j.jmps.2023.105492 || (ii) https://doi.org/10.1016/j.jmps.2023.105493 || (iii) https://doi.org/10.31224/4289

@Article{zunker2024mechanicallyI,
 author =  {Zunker, William and Kamrin, Ken},
 title =   {A mechanically-derived contact model for adhesive elastic-perfectly plastic particles,
            Part I: Utilizing the method of dimensionality reduction},
 journal = {Journal of the Mechanics and Physics of Solids},
 year =    {2024},
 volume =  {183},
 pages =   {105492},
}

@Article{zunker2024mechanicallyII,
 author =  {Zunker, William and Kamrin, Ken},
 title =   {A mechanically-derived contact model for adhesive elastic-perfectly plastic particles,
            Part II: Contact under high compaction—modeling a bulk elastic response},
 journal = {Journal of the Mechanics and Physics of Solids},
 year =    {2024},
 volume =  {183},
 pages =   {105493},
}

@Article{zunker2025experimentally,
 author =  {Zunker, William and Dunatunga, Sachith and Thakur, Subhash and Tang, Pingjun and Kamrin, Ken},
 title =   {Experimentally validated DEM for large deformation powder compaction:
            mechanically-derived contact model and screening of non-physical contacts},
 year =    {2025},
 journal = {engrXiv},
}

CITE-CITE-CITE-CITE-CITE-CITE-CITE-CITE-CITE-CITE-CITE-CITE-CITE

Generated 0 of 0 mixed pair_coeff terms from geometric mixing rule
Neighbor list info ...
  update: every = 10 steps, delay = 60 steps, check = no
  max neighbors/atom: 2000, page size: 100000
  master list distance cutoff = 0.002318
  ghost atom cutoff = 0.002318
  binsize = 0.001159, bins = 9 9 19
  1 neighbor lists, perpetual/occasional/extra = 1 0 0
  (1) pair granular, perpetual
      attributes: half, newton off, size, history
      pair build: half/size/bin/atomonly/newtoff
      stencil: full/bin/3d
      bin: standard
Per MPI rank memory allocation (min/avg/max) = 72.3 | 72.3 | 72.3 Mbytes
      Dt          Step        Atoms        KinEng         Volume      v_disp_upper 
 4e-06                  0         200   0              2.1e-06        0            
Loop time of 7.84e-07 on 1 procs for 0 steps with 200 atoms

127.6% CPU use with 1 MPI tasks x no OpenMP threads

MPI task timing breakdown:
Section |  min time  |  avg time  |  max time  |%varavg| %total
---------------------------------------------------------------
Pair    | 0          | 0          | 0          |   0.0 |  0.00
Neigh   | 0          | 0          | 0          |   0.0 |  0.00
Comm    | 0          | 0          | 0          |   0.0 |  0.00
Output  | 0          | 0          | 0          |   0.0 |  0.00
Modify  | 0          | 0          | 0          |   0.0 |  0.00
Other   |            | 7.84e-07   |            |       |100.00

Nlocal:            200 ave         200 max         200 min
Histogram: 1 0 0 0 0 0 0 0 0 0
Nghost:              0 ave           0 max           0 min
Histogram: 1 0 0 0 0 0 0 0 0 0
Neighs:           1341 ave        1341 max        1341 min
Histogram: 1 0 0 0 0 0 0 0 0 0

Total # of neighbors = 1341
Ave neighs/atom = 6.705
Neighbor list builds = 0
Dangerous builds not checked

compute sigmaxx all property/atom d_sigmaxx
compute sigmayy all property/atom d_sigmayy
compute sigmazz all property/atom d_sigmazz
compute Velas all property/atom d_Velas

compute sigmaxx_ave all reduce ave c_sigmaxx
compute sigmayy_ave all reduce ave c_sigmayy
compute sigmazz_ave all reduce ave c_sigmazz
compute Velas_sum all reduce sum c_Velas

variable sxx_ave equal c_sigmaxx_ave
variable syy_ave equal c_sigmayy_ave
variable szz_ave equal c_sigmazz_ave
variable Vparticles equal c_Velas_sum

#fix log all print 1 "${sxx_ave} ${syy_ave} ${szz_ave} ${Vparticles}" file average_normal_stresses_tableting200.csv screen no
#dump dumpParticles all custom ${output_rate} tableting200.dump id type mass diameter x y z vx vy vz fx fy fz c_ke c_sigmaxx c_sigmayy c_sigmazz
#dump dumpParticlesVTK all vtk ${output_rate} post/particles_*.vtk id x y z fx fy fz vx vy vz c_ke radius c_sigmaxx c_sigmayy c_sigmazz

############################################## RUN SIMULATION #################################################

variable upper_punch_stroke  equal 0.7*${dieHeight}
variable upper_punch_stroke  equal 0.7*0.01
variable vel_upper           equal 0.25

variable settling_steps      equal round(0.02/dt)
variable compression_steps   equal 2*round(${upper_punch_stroke}/${vel_upper}/dt)
variable compression_steps   equal 2*round(0.007/${vel_upper}/dt)
variable compression_steps   equal 2*round(0.007/0.25/dt)
variable ejection_steps      equal ${compression_steps}
variable ejection_steps      equal 14000
variable free_float_steps    equal round(0.02/dt)

##### SETTLING #####

run ${settling_steps}
run 5000
Generated 0 of 0 mixed pair_coeff terms from geometric mixing rule
Per MPI rank memory allocation (min/avg/max) = 72.3 | 72.3 | 72.3 Mbytes
      Dt          Step        Atoms        KinEng         Volume      v_disp_upper 
 4e-06                  0         200   0              2.1e-06        0            
 4e-06                100         200   1.5945503e-09  2.1e-06        0            
 4e-06                200         200   6.3722236e-09  2.1e-06        0            
 4e-06                300         200   1.4211064e-08  2.1e-06        0            
 4e-06                400         200   2.5258679e-08  2.1e-06        0            
 4e-06                500         200   3.9464769e-08  2.1e-06        0            
 4e-06                600         200   5.6825967e-08  2.1e-06        0            
 4e-06                700         200   7.7344469e-08  2.1e-06        0            
 4e-06                800         200   1.0060974e-07  2.1e-06        0            
 4e-06                900         200   1.2653591e-07  2.1e-06        0            
 4e-06               1000         200   1.5569212e-07  2.1e-06        0            
 4e-06               1100         200   1.8742647e-07  2.1e-06        0            
 4e-06               1200         200   2.215525e-07   2.1e-06        0            
 4e-06               1300         200   2.5959327e-07  2.1e-06        0            
 4e-06               1400         200   3.010369e-07   2.1e-06        0            
 4e-06               1500         200   3.4166871e-07  2.1e-06        0            
 4e-06               1600         200   3.8173997e-07  2.1e-06        0            
 4e-06               1700         200   4.2263596e-07  2.1e-06        0            
 4e-06               1800         200   4.6542919e-07  2.1e-06        0            
 4e-06               1900         200   5.1316032e-07  2.1e-06        0            
 4e-06               2000         200   5.6390086e-07  2.1e-06        0            
 4e-06               2100         200   6.1282692e-07  2.1e-06        0            
 4e-06               2200         200   6.6871978e-07  2.1e-06        0            
 4e-06               2300         200   7.2432957e-07  2.1e-06        0            
 4e-06               2400         200   7.7356329e-07  2.1e-06        0            
 4e-06               2500         200   8.3121212e-07  2.1e-06        0            
 4e-06               2600         200   8.9285402e-07  2.1e-06        0            
 4e-06               2700         200   9.5056709e-07  2.1e-06        0            
 4e-06               2800         200   1.0078859e-06  2.1e-06        0            
 4e-06               2900         200   1.0583726e-06  2.1e-06        0            
 4e-06               3000         200   1.1128777e-06  2.1e-06        0            
 4e-06               3100         200   1.149994e-06   2.1e-06        0            
 4e-06               3200         200   1.2038821e-06  2.1e-06        0            
 4e-06               3300         200   1.2266858e-06  2.1e-06        0            
 4e-06               3400         200   1.2785607e-06  2.1e-06        0            
 4e-06               3500         200   1.3382357e-06  2.1e-06        0            
 4e-06               3600         200   1.3864259e-06  2.1e-06        0            
 4e-06               3700         200   1.4382735e-06  2.1e-06        0            
 4e-06               3800         200   1.4261443e-06  2.1e-06        0            
 4e-06               3900         200   1.4409345e-06  2.1e-06        0            
 4e-06               4000         200   1.4794449e-06  2.1e-06        0            
 4e-06               4100         200   1.4696815e-06  2.1e-06        0            
 4e-06               4200         200   1.4980192e-06  2.1e-06        0            
 4e-06               4300         200   1.5093101e-06  2.1e-06        0            
 4e-06               4400         200   1.527165e-06   2.1e-06        0            
 4e-06               4500         200   1.5514338e-06  2.1e-06        0            
 4e-06               4600         200   1.5939536e-06  2.1e-06        0            
 4e-06               4700         200   1.6017087e-06  2.1e-06        0            
 4e-06               4800         200   1.5835827e-06  2.1e-06        0            
 4e-06               4900         200   1.5646707e-06  2.1e-06        0            
 4e-06               5000         200   1.5869167e-06  2.1e-06        0            
Loop time of 0.894952 on 1 procs for 5000 steps with 200 atoms

99.7% CPU use with 1 MPI tasks x no OpenMP threads

MPI task timing breakdown:
Section |  min time  |  avg time  |  max time  |%varavg| %total
---------------------------------------------------------------
Pair    | 0.33414    | 0.33414    | 0.33414    |   0.0 | 37.34
Neigh   | 0.013978   | 0.013978   | 0.013978   |   0.0 |  1.56
Comm    | 0.00055911 | 0.00055911 | 0.00055911 |   0.0 |  0.06
Output  | 0.00042257 | 0.00042257 | 0.00042257 |   0.0 |  0.05
Modify  | 0.54341    | 0.54341    | 0.54341    |   0.0 | 60.72
Other   |            | 0.002439   |            |       |  0.27

Nlocal:            200 ave         200 max         200 min
Histogram: 1 0 0 0 0 0 0 0 0 0
Nghost:              0 ave           0 max           0 min
Histogram: 1 0 0 0 0 0 0 0 0 0
Neighs:           1663 ave        1663 max        1663 min
Histogram: 1 0 0 0 0 0 0 0 0 0

Total # of neighbors = 1663
Ave neighs/atom = 8.315
Neighbor list builds = 83
Dangerous builds not checked

##### Compression & Release #####

variable punch_frequency  equal PI/2/(dt*${compression_steps}/2)
variable punch_frequency  equal PI/2/(dt*14000/2)
variable disp_upper       equal -${upper_punch_stroke}*sin(${punch_frequency}*elapsed*dt)
variable disp_upper       equal -0.007*sin(${punch_frequency}*elapsed*dt)
variable disp_upper       equal -0.007*sin(56.0998688141035*elapsed*dt)
variable short_release    equal round(${compression_steps}*1.0)
variable short_release    equal round(14000*1.0)
run ${short_release}
run 14000
Generated 0 of 0 mixed pair_coeff terms from geometric mixing rule
Per MPI rank memory allocation (min/avg/max) = 72.3 | 72.3 | 72.3 Mbytes
      Dt          Step        Atoms        KinEng         Volume      v_disp_upper 
 4e-06               5000         200   1.5869167e-06  2.1e-06        0            
 4e-06               5100         200   1.533415e-06   2.1e-06       -0.00015706645
 4e-06               5200         200   1.5210118e-06  2.1e-06       -0.00031405381
 4e-06               5300         200   1.4717654e-06  2.1e-06       -0.00047088304
 4e-06               5400         200   1.3867583e-06  2.1e-06       -0.00062747516
 4e-06               5500         200   1.3210172e-06  2.1e-06       -0.00078375133
 4e-06               5600         200   1.2694854e-06  2.1e-06       -0.00093963286
 4e-06               5700         200   1.210939e-06   2.1e-06       -0.0010950413 
 4e-06               5800         200   1.1030246e-06  2.1e-06       -0.0012498983 
 4e-06               5900         200   1.0576145e-06  2.1e-06       -0.0014041259 
 4e-06               6000         200   9.6819458e-07  2.1e-06       -0.0015576465 
 4e-06               6100         200   8.4390663e-07  2.1e-06       -0.0017103828 
 4e-06               6200         200   7.1811878e-07  2.1e-06       -0.0018622579 
 4e-06               6300         200   5.9188275e-07  2.1e-06       -0.0020131953 
 4e-06               6400         200   4.8593994e-07  2.1e-06       -0.002163119  
 4e-06               6500         200   3.7604444e-07  2.1e-06       -0.0023119534 
 4e-06               6600         200   2.9315224e-07  2.1e-06       -0.0024596238 
 4e-06               6700         200   2.4346404e-07  2.1e-06       -0.0026060556 
 4e-06               6800         200   2.1035347e-07  2.1e-06       -0.0027511752 
 4e-06               6900         200   1.7982462e-07  2.1e-06       -0.0028949095 
 4e-06               7000         200   3.3817811e-07  2.1e-06       -0.0030371862 
 4e-06               7100         200   5.4229142e-07  2.1e-06       -0.0031779335 
 4e-06               7200         200   9.8011974e-07  2.1e-06       -0.0033170806 
 4e-06               7300         200   1.4073827e-06  2.1e-06       -0.0034545575 
 4e-06               7400         200   1.8007974e-06  2.1e-06       -0.0035902949 
 4e-06               7500         200   2.5690983e-06  2.1e-06       -0.0037242245 
 4e-06               7600         200   3.3504605e-06  2.1e-06       -0.0038562789 
 4e-06               7700         200   3.3047732e-06  2.1e-06       -0.0039863915 
 4e-06               7800         200   2.7409232e-06  2.1e-06       -0.0041144968 
 4e-06               7900         200   2.7731736e-06  2.1e-06       -0.0042405303 
 4e-06               8000         200   2.7721382e-06  2.1e-06       -0.0043644286 
 4e-06               8100         200   2.5449128e-06  2.1e-06       -0.0044861293 
 4e-06               8200         200   2.4113011e-06  2.1e-06       -0.0046055711 
 4e-06               8300         200   2.5104553e-06  2.1e-06       -0.0047226938 
 4e-06               8400         200   2.7969453e-06  2.1e-06       -0.0048374385 
 4e-06               8500         200   2.4549778e-06  2.1e-06       -0.0049497475 
 4e-06               8600         200   2.6065634e-06  2.1e-06       -0.005059564  
 4e-06               8700         200   1.94773e-06    2.1e-06       -0.005166833  
 4e-06               8800         200   1.8669003e-06  2.1e-06       -0.0052715003 
 4e-06               8900         200   1.7712516e-06  2.1e-06       -0.0053735132 
 4e-06               9000         200   1.5868574e-06  2.1e-06       -0.0054728204 
 4e-06               9100         200   1.2586882e-06  2.1e-06       -0.0055693718 
 4e-06               9200         200   1.7392355e-06  2.1e-06       -0.005663119  
 4e-06               9300         200   1.4103062e-06  2.1e-06       -0.0057540145 
 4e-06               9400         200   1.6133909e-06  2.1e-06       -0.0058420128 
 4e-06               9500         200   1.5715429e-06  2.1e-06       -0.0059270694 
 4e-06               9600         200   1.3060432e-06  2.1e-06       -0.0060091416 
 4e-06               9700         200   1.3016643e-06  2.1e-06       -0.0060881879 
 4e-06               9800         200   1.3827359e-06  2.1e-06       -0.0061641687 
 4e-06               9900         200   1.166866e-06   2.1e-06       -0.0062370457 
 4e-06              10000         200   1.1328931e-06  2.1e-06       -0.0063067821 
 4e-06              10100         200   1.0811811e-06  2.1e-06       -0.0063733428 
 4e-06              10200         200   1.0540805e-06  2.1e-06       -0.0064366944 
 4e-06              10300         200   9.3224876e-07  2.1e-06       -0.0064968049 
 4e-06              10400         200   8.8422228e-07  2.1e-06       -0.0065536441 
 4e-06              10500         200   9.6574449e-07  2.1e-06       -0.0066071833 
 4e-06              10600         200   6.5673924e-07  2.1e-06       -0.0066573956 
 4e-06              10700         200   5.7629287e-07  2.1e-06       -0.0067042557 
 4e-06              10800         200   5.1184648e-07  2.1e-06       -0.00674774   
 4e-06              10900         200   4.2140431e-07  2.1e-06       -0.0067878266 
 4e-06              11000         200   3.679501e-07   2.1e-06       -0.0068244954 
 4e-06              11100         200   2.7198635e-07  2.1e-06       -0.0068577278 
 4e-06              11200         200   3.9270049e-07  2.1e-06       -0.0068875071 
 4e-06              11300         200   2.5364345e-07  2.1e-06       -0.0069138184 
 4e-06              11400         200   2.311875e-07   2.1e-06       -0.0069366483 
 4e-06              11500         200   9.1194666e-08  2.1e-06       -0.0069559855 
 4e-06              11600         200   5.9128951e-08  2.1e-06       -0.0069718201 
 4e-06              11700         200   3.8675445e-08  2.1e-06       -0.0069841441 
 4e-06              11800         200   1.5261639e-08  2.1e-06       -0.0069929515 
 4e-06              11900         200   4.1435674e-09  2.1e-06       -0.0069982376 
 4e-06              12000         200   3.6182887e-10  2.1e-06       -0.007        
 4e-06              12100         200   3.4148153e-09  2.1e-06       -0.0069982376 
 4e-06              12200         200   1.201855e-08   2.1e-06       -0.0069929515 
 4e-06              12300         200   2.7088001e-08  2.1e-06       -0.0069841441 
 4e-06              12400         200   4.7261349e-08  2.1e-06       -0.0069718201 
 4e-06              12500         200   7.585591e-08   2.1e-06       -0.0069559855 
 4e-06              12600         200   1.0717843e-07  2.1e-06       -0.0069366483 
 4e-06              12700         200   1.4357347e-07  2.1e-06       -0.0069138184 
 4e-06              12800         200   2.3364223e-07  2.1e-06       -0.0068875071 
 4e-06              12900         200   2.6460705e-07  2.1e-06       -0.0068577278 
 4e-06              13000         200   3.0878617e-07  2.1e-06       -0.0068244954 
 4e-06              13100         200   4.0950412e-07  2.1e-06       -0.0067878266 
 4e-06              13200         200   5.4382238e-07  2.1e-06       -0.00674774   
 4e-06              13300         200   5.9323976e-07  2.1e-06       -0.0067042557 
 4e-06              13400         200   6.0024632e-07  2.1e-06       -0.0066573956 
 4e-06              13500         200   8.9144808e-07  2.1e-06       -0.0066071833 
 4e-06              13600         200   7.4298898e-07  2.1e-06       -0.0065536441 
 4e-06              13700         200   7.5476346e-07  2.1e-06       -0.0064968049 
 4e-06              13800         200   9.4480881e-07  2.1e-06       -0.0064366944 
 4e-06              13900         200   6.9480641e-07  2.1e-06       -0.0063733428 
 4e-06              14000         200   3.6996473e-07  2.1e-06       -0.0063067821 
 4e-06              14100         200   3.7522265e-07  2.1e-06       -0.0062370457 
 4e-06              14200         200   9.5971189e-07  2.1e-06       -0.0061641687 
 4e-06              14300         200   6.3482043e-07  2.1e-06       -0.0060881879 
 4e-06              14400         200   4.4208165e-08  2.1e-06       -0.0060091416 
 4e-06              14500         200   2.5451697e-09  2.1e-06       -0.0059270694 
 4e-06              14600         200   2.3358938e-10  2.1e-06       -0.0058420128 
 4e-06              14700         200   6.5542266e-10  2.1e-06       -0.0057540145 
 4e-06              14800         200   5.7442167e-10  2.1e-06       -0.005663119  
 4e-06              14900         200   1.8498409e-10  2.1e-06       -0.0055693718 
 4e-06              15000         200   8.9754087e-12  2.1e-06       -0.0054728204 
 4e-06              15100         200   1.5735217e-10  2.1e-06       -0.0053735132 
 4e-06              15200         200   2.0644095e-11  2.1e-06       -0.0052715003 
 4e-06              15300         200   3.1810324e-12  2.1e-06       -0.005166833  
 4e-06              15400         200   9.2248411e-13  2.1e-06       -0.005059564  
 4e-06              15500         200   1.049892e-12   2.1e-06       -0.0049497475 
 4e-06              15600         200   5.1537473e-13  2.1e-06       -0.0048374385 
 4e-06              15700         200   8.0874962e-14  2.1e-06       -0.0047226938 
 4e-06              15800         200   1.9259517e-14  2.1e-06       -0.0046055711 
 4e-06              15900         200   6.1677187e-14  2.1e-06       -0.0044861293 
 4e-06              16000         200   4.0175545e-14  2.1e-06       -0.0043644286 
 4e-06              16100         200   2.8906156e-14  2.1e-06       -0.0042405303 
 4e-06              16200         200   1.4689406e-14  2.1e-06       -0.0041144968 
 4e-06              16300         200   1.4816055e-14  2.1e-06       -0.0039863915 
 4e-06              16400         200   1.8585236e-14  2.1e-06       -0.0038562789 
 4e-06              16500         200   1.485896e-14   2.1e-06       -0.0037242245 
 4e-06              16600         200   1.5799533e-14  2.1e-06       -0.0035902949 
 4e-06              16700         200   1.5241276e-14  2.1e-06       -0.0034545575 
 4e-06              16800         200   1.1272606e-14  2.1e-06       -0.0033170806 
 4e-06              16900         200   1.2135244e-14  2.1e-06       -0.0031779335 
 4e-06              17000         200   1.143872e-14   2.1e-06       -0.0030371862 
 4e-06              17100         200   1.1915182e-14  2.1e-06       -0.0028949095 
 4e-06              17200         200   1.2037492e-14  2.1e-06       -0.0027511752 
 4e-06              17300         200   1.2142546e-14  2.1e-06       -0.0026060556 
 4e-06              17400         200   1.2259988e-14  2.1e-06       -0.0024596238 
 4e-06              17500         200   1.2151413e-14  2.1e-06       -0.0023119534 
 4e-06              17600         200   1.2016981e-14  2.1e-06       -0.002163119  
 4e-06              17700         200   1.1899607e-14  2.1e-06       -0.0020131953 
 4e-06              17800         200   1.1847233e-14  2.1e-06       -0.0018622579 
 4e-06              17900         200   1.2597274e-14  2.1e-06       -0.0017103828 
 4e-06              18000         200   1.2571584e-14  2.1e-06       -0.0015576465 
 4e-06              18100         200   1.2548167e-14  2.1e-06       -0.0014041259 
 4e-06              18200         200   1.2600584e-14  2.1e-06       -0.0012498983 
 4e-06              18300         200   1.2060676e-14  2.1e-06       -0.0010950413 
 4e-06              18400         200   1.2159889e-14  2.1e-06       -0.00093963286
 4e-06              18500         200   1.2213635e-14  2.1e-06       -0.00078375133
 4e-06              18600         200   1.2323751e-14  2.1e-06       -0.00062747516
 4e-06              18700         200   1.2137887e-14  2.1e-06       -0.00047088304
 4e-06              18800         200   1.2201084e-14  2.1e-06       -0.00031405381
 4e-06              18900         200   1.2210617e-14  2.1e-06       -0.00015706645
 4e-06              19000         200   1.2385845e-14  2.1e-06        2.0903119e-17
Loop time of 9.48207 on 1 procs for 14000 steps with 200 atoms

99.6% CPU use with 1 MPI tasks x no OpenMP threads

MPI task timing breakdown:
Section |  min time  |  avg time  |  max time  |%varavg| %total
---------------------------------------------------------------
Pair    | 5.3814     | 5.3814     | 5.3814     |   0.0 | 56.75
Neigh   | 0.04326    | 0.04326    | 0.04326    |   0.0 |  0.46
Comm    | 0.0018574  | 0.0018574  | 0.0018574  |   0.0 |  0.02
Output  | 0.0018533  | 0.0018533  | 0.0018533  |   0.0 |  0.02
Modify  | 4.047      | 4.047      | 4.047      |   0.0 | 42.68
Other   |            | 0.006661   |            |       |  0.07

Nlocal:            200 ave         200 max         200 min
Histogram: 1 0 0 0 0 0 0 0 0 0
Nghost:              0 ave           0 max           0 min
Histogram: 1 0 0 0 0 0 0 0 0 0
Neighs:           3146 ave        3146 max        3146 min
Histogram: 1 0 0 0 0 0 0 0 0 0

Total # of neighbors = 3146
Ave neighs/atom = 15.73
Neighbor list builds = 233
Dangerous builds not checked

##### EJECTION #####

variable punch_frequency  equal PI/2/(dt*${ejection_steps})
variable punch_frequency  equal PI/2/(dt*14000)
variable disp_lower       equal ${dieHeight}*sin(${punch_frequency}*elapsed*dt)
variable disp_lower       equal 0.01*sin(${punch_frequency}*elapsed*dt)
variable disp_lower       equal 0.01*sin(28.0499344070517*elapsed*dt)
variable disp_upper       equal 0.9*v_disp_lower
run ${ejection_steps}
run 14000
Generated 0 of 0 mixed pair_coeff terms from geometric mixing rule
Per MPI rank memory allocation (min/avg/max) = 72.31 | 72.31 | 72.31 Mbytes
      Dt          Step        Atoms        KinEng         Volume      v_disp_upper 
 4e-06              19000         200   1.2385845e-14  2.1e-06        0            
 4e-06              19100         200   1.2261513e-05  2.1e-06        0.00010097765
 4e-06              19200         200   1.668842e-05   2.1e-06        0.00020194258
 4e-06              19300         200   8.188349e-06   2.1e-06        0.00030288209
 4e-06              19400         200   3.786144e-06   2.1e-06        0.00040378347
 4e-06              19500         200   9.574368e-06   2.1e-06        0.00050463403
 4e-06              19600         200   1.1344815e-05  2.1e-06        0.00060542105
 4e-06              19700         200   5.9381813e-06  2.1e-06        0.00070613186
 4e-06              19800         200   6.6666301e-06  2.1e-06        0.00080675378
 4e-06              19900         200   1.090387e-05   2.1e-06        0.00090727414
 4e-06              20000         200   7.740567e-06   2.1e-06        0.0010076803 
 4e-06              20100         200   6.2375154e-06  2.1e-06        0.0011079596 
 4e-06              20200         200   9.3040254e-06  2.1e-06        0.0012080994 
 4e-06              20300         200   8.9696433e-06  2.1e-06        0.0013080871 
 4e-06              20400         200   6.5727278e-06  2.1e-06        0.0014079102 
 4e-06              20500         200   7.762698e-06   2.1e-06        0.001507556  
 4e-06              20600         200   9.2433982e-06  2.1e-06        0.0016070121 
 4e-06              20700         200   7.3505514e-06  2.1e-06        0.0017062658 
 4e-06              20800         200   6.9601084e-06  2.1e-06        0.0018053047 
 4e-06              20900         200   8.6605025e-06  2.1e-06        0.0019041164 
 4e-06              21000         200   8.0661649e-06  2.1e-06        0.0020026884 
 4e-06              21100         200   6.9330037e-06  2.1e-06        0.0021010083 
 4e-06              21200         200   7.8802994e-06  2.1e-06        0.0021990637 
 4e-06              21300         200   8.12707e-06    2.1e-06        0.0022968422 
 4e-06              21400         200   7.1184483e-06  2.1e-06        0.0023943316 
 4e-06              21500         200   7.3747722e-06  2.1e-06        0.0024915196 
 4e-06              21600         200   7.941038e-06   2.1e-06        0.0025883939 
 4e-06              21700         200   7.2906871e-06  2.1e-06        0.0026849424 
 4e-06              21800         200   7.0584615e-06  2.1e-06        0.0027811529 
 4e-06              21900         200   7.6303484e-06  2.1e-06        0.0028770133 
 4e-06              22000         200   7.3276603e-06  2.1e-06        0.0029725116 
 4e-06              22100         200   7.0392936e-06  2.1e-06        0.0030676356 
 4e-06              22200         200   7.1860378e-06  2.1e-06        0.0031623734 
 4e-06              22300         200   7.1628093e-06  2.1e-06        0.0032567132 
 4e-06              22400         200   6.9556524e-06  2.1e-06        0.0033506429 
 4e-06              22500         200   6.9109402e-06  2.1e-06        0.0034441509 
 4e-06              22600         200   6.981937e-06   2.1e-06        0.0035372253 
 4e-06              22700         200   6.8009271e-06  2.1e-06        0.0036298544 
 4e-06              22800         200   6.6923037e-06  2.1e-06        0.0037220265 
 4e-06              22900         200   6.7438993e-06  2.1e-06        0.0038137301 
 4e-06              23000         200   6.6280705e-06  2.1e-06        0.0039049537 
 4e-06              23100         200   6.4659616e-06  2.1e-06        0.0039956856 
 4e-06              23200         200   6.486839e-06   2.1e-06        0.0040859145 
 4e-06              23300         200   6.4478859e-06  2.1e-06        0.0041756291 
 4e-06              23400         200   6.2666043e-06  2.1e-06        0.004264818  
 4e-06              23500         200   6.2352434e-06  2.1e-06        0.00435347   
 4e-06              23600         200   6.2074024e-06  2.1e-06        0.004441574  
 4e-06              23700         200   6.068366e-06   2.1e-06        0.0045291188 
 4e-06              23800         200   5.9784229e-06  2.1e-06        0.0046160935 
 4e-06              23900         200   5.9536629e-06  2.1e-06        0.0047024871 
 4e-06              24000         200   5.8480609e-06  2.1e-06        0.0047882887 
 4e-06              24100         200   5.707216e-06   2.1e-06        0.0048734875 
 4e-06              24200         200   5.6922834e-06  2.1e-06        0.0049580728 
 4e-06              24300         200   5.6187319e-06  2.1e-06        0.005042034  
 4e-06              24400         200   5.4774741e-06  2.1e-06        0.0051253604 
 4e-06              24500         200   5.4144843e-06  2.1e-06        0.0052080417 
 4e-06              24600         200   5.3595768e-06  2.1e-06        0.0052900673 
 4e-06              24700         200   5.2374057e-06  2.1e-06        0.0053714269 
 4e-06              24800         200   5.1410204e-06  2.1e-06        0.0054521104 
 4e-06              24900         200   5.0888231e-06  2.1e-06        0.0055321075 
 4e-06              25000         200   4.984139e-06   2.1e-06        0.0056114082 
 4e-06              25100         200   4.9836569e-06  2.1e-06        0.0056900025 
 4e-06              25200         200   4.7331289e-06  2.1e-06        0.0057678805 
 4e-06              25300         200   4.6728119e-06  2.1e-06        0.0058450324 
 4e-06              25400         200   4.7016583e-06  2.1e-06        0.0059214485 
 4e-06              25500         200   4.5200193e-06  2.1e-06        0.0059971192 
 4e-06              25600         200   4.378095e-06   2.1e-06        0.0060720349 
 4e-06              25700         200   4.3949017e-06  2.1e-06        0.0061461862 
 4e-06              25800         200   4.2795904e-06  2.1e-06        0.0062195638 
 4e-06              25900         200   4.116551e-06   2.1e-06        0.0062921585 
 4e-06              26000         200   4.0844003e-06  2.1e-06        0.006363961  
 4e-06              26100         200   4.0601132e-06  2.1e-06        0.0064349624 
 4e-06              26200         200   3.8632558e-06  2.1e-06        0.0065051538 
 4e-06              26300         200   3.7501901e-06  2.1e-06        0.0065745262 
 4e-06              26400         200   3.7665658e-06  2.1e-06        0.006643071  
 4e-06              26500         200   3.6221171e-06  2.1e-06        0.0067107795 
 4e-06              26600         200   3.483452e-06   2.1e-06        0.0067776432 
 4e-06              26700         200   3.4573133e-06  2.1e-06        0.0068436537 
 4e-06              26800         200   3.3725298e-06  2.1e-06        0.0069088027 
 4e-06              26900         200   3.2275695e-06  2.1e-06        0.0069730819 
 4e-06              27000         200   3.1636462e-06  2.1e-06        0.0070364833 
 4e-06              27100         200   3.1002791e-06  2.1e-06        0.007098999  
 4e-06              27200         200   2.9719515e-06  2.1e-06        0.0071606209 
 4e-06              27300         200   2.8999181e-06  2.1e-06        0.0072213415 
 4e-06              27400         200   2.8296722e-06  2.1e-06        0.0072811529 
 4e-06              27500         200   2.7244185e-06  2.1e-06        0.0073400478 
 4e-06              27600         200   2.6342108e-06  2.1e-06        0.0073980187 
 4e-06              27700         200   2.5655873e-06  2.1e-06        0.0074550582 
 4e-06              27800         200   2.4771843e-06  2.1e-06        0.0075111593 
 4e-06              27900         200   2.3805529e-06  2.1e-06        0.0075663148 
 4e-06              28000         200   2.3094253e-06  2.1e-06        0.0076205178 
 4e-06              28100         200   2.2443631e-06  2.1e-06        0.0076737615 
 4e-06              28200         200   2.1339799e-06  2.1e-06        0.0077260391 
 4e-06              28300         200   2.0525827e-06  2.1e-06        0.0077773442 
 4e-06              28400         200   2.0012311e-06  2.1e-06        0.0078276702 
 4e-06              28500         200   1.9064828e-06  2.1e-06        0.0078770108 
 4e-06              28600         200   1.8186848e-06  2.1e-06        0.0079253598 
 4e-06              28700         200   1.7614909e-06  2.1e-06        0.0079727111 
 4e-06              28800         200   1.6854916e-06  2.1e-06        0.0080190587 
 4e-06              28900         200   1.5987487e-06  2.1e-06        0.0080643969 
 4e-06              29000         200   1.5345142e-06  2.1e-06        0.0081087198 
 4e-06              29100         200   1.4807046e-06  2.1e-06        0.008152022  
 4e-06              29200         200   1.3891852e-06  2.1e-06        0.0081942979 
 4e-06              29300         200   1.3152808e-06  2.1e-06        0.0082355423 
 4e-06              29400         200   1.2682955e-06  2.1e-06        0.00827575   
 4e-06              29500         200   1.1980726e-06  2.1e-06        0.0083149158 
 4e-06              29600         200   1.1206391e-06  2.1e-06        0.0083530349 
 4e-06              29700         200   1.069315e-06   2.1e-06        0.0083901025 
 4e-06              29800         200   1.0128853e-06  2.1e-06        0.0084261138 
 4e-06              29900         200   9.4294228e-07  2.1e-06        0.0084610645 
 4e-06              30000         200   8.8682322e-07  2.1e-06        0.00849495   
 4e-06              30100         200   8.3143727e-07  2.1e-06        0.0085277661 
 4e-06              30200         200   7.7886925e-07  2.1e-06        0.0085595086 
 4e-06              30300         200   7.2644265e-07  2.1e-06        0.0085901737 
 4e-06              30400         200   6.7416382e-07  2.1e-06        0.0086197574 
 4e-06              30500         200   6.2520867e-07  2.1e-06        0.0086482559 
 4e-06              30600         200   5.7710448e-07  2.1e-06        0.0086756657 
 4e-06              30700         200   5.3156928e-07  2.1e-06        0.0087019834 
 4e-06              30800         200   4.8684727e-07  2.1e-06        0.0087272057 
 4e-06              30900         200   4.4454752e-07  2.1e-06        0.0087513293 
 4e-06              31000         200   4.0418128e-07  2.1e-06        0.0087743512 
 4e-06              31100         200   3.677997e-07   2.1e-06        0.0087962686 
 4e-06              31200         200   3.2762411e-07  2.1e-06        0.0088170786 
 4e-06              31300         200   2.9156601e-07  2.1e-06        0.0088367787 
 4e-06              31400         200   2.6235825e-07  2.1e-06        0.0088553663 
 4e-06              31500         200   2.2926207e-07  2.1e-06        0.0088728392 
 4e-06              31600         200   1.9870435e-07  2.1e-06        0.0088891951 
 4e-06              31700         200   1.7318685e-07  2.1e-06        0.0089044319 
 4e-06              31800         200   1.4793716e-07  2.1e-06        0.0089185479 
 4e-06              31900         200   1.2335756e-07  2.1e-06        0.0089315411 
 4e-06              32000         200   1.024269e-07   2.1e-06        0.0089434099 
 4e-06              32100         200   8.4811971e-08  2.1e-06        0.0089541529 
 4e-06              32200         200   6.5610079e-08  2.1e-06        0.0089637686 
 4e-06              32300         200   4.9804549e-08  2.1e-06        0.008972256  
 4e-06              32400         200   3.7696394e-08  2.1e-06        0.0089796139 
 4e-06              32500         200   2.6121364e-08  2.1e-06        0.0089858413 
 4e-06              32600         200   1.6302764e-08  2.1e-06        0.0089909376 
 4e-06              32700         200   9.4496486e-09  2.1e-06        0.008994902  
 4e-06              32800         200   4.3514823e-09  2.1e-06        0.0089977341 
 4e-06              32900         200   1.0546756e-09  2.1e-06        0.0089994335 
 4e-06              33000         200   7.3695568e-13  2.1e-06        0.009        
Loop time of 11.7961 on 1 procs for 14000 steps with 200 atoms

99.6% CPU use with 1 MPI tasks x no OpenMP threads

MPI task timing breakdown:
Section |  min time  |  avg time  |  max time  |%varavg| %total
---------------------------------------------------------------
Pair    | 7.033      | 7.033      | 7.033      |   0.0 | 59.62
Neigh   | 0.047308   | 0.047308   | 0.047308   |   0.0 |  0.40
Comm    | 0.0020382  | 0.0020382  | 0.0020382  |   0.0 |  0.02
Output  | 0.0022072  | 0.0022072  | 0.0022072  |   0.0 |  0.02
Modify  | 4.7043     | 4.7043     | 4.7043     |   0.0 | 39.88
Other   |            | 0.00727    |            |       |  0.06

Nlocal:            200 ave         200 max         200 min
Histogram: 1 0 0 0 0 0 0 0 0 0
Nghost:              0 ave           0 max           0 min
Histogram: 1 0 0 0 0 0 0 0 0 0
Neighs:           3145 ave        3145 max        3145 min
Histogram: 1 0 0 0 0 0 0 0 0 0

Total # of neighbors = 3145
Ave neighs/atom = 15.725
Neighbor list builds = 233
Dangerous builds not checked

##### FREE FLOAT #####

variable disp_lower  equal ${dieHeight}
variable disp_lower  equal 0.01
variable disp_upper  equal ${dieHeight}*0.9
variable disp_upper  equal 0.01*0.9
variable max_disp    equal ${dieRadius}*0.75
variable max_disp    equal 0.004*0.75
run ${free_float_steps}
run 5000
Generated 0 of 0 mixed pair_coeff terms from geometric mixing rule
Per MPI rank memory allocation (min/avg/max) = 72.31 | 72.31 | 72.31 Mbytes
      Dt          Step        Atoms        KinEng         Volume      v_disp_upper 
 4e-06              33000         200   7.3695568e-13  2.1e-06        0.009        
 4e-06              33100         200   1.0383246e-10  2.1e-06        0.009        
 4e-06              33200         200   5.9976193e-12  2.1e-06        0.009        
 4e-06              33300         200   6.2729949e-12  2.1e-06        0.009        
 4e-06              33400         200   9.0819715e-12  2.1e-06        0.009        
 4e-06              33500         200   4.1741245e-12  2.1e-06        0.009        
 4e-06              33600         200   4.2796157e-13  2.1e-06        0.009        
 4e-06              33700         200   1.2198973e-13  2.1e-06        0.009        
 4e-06              33800         200   5.0253099e-13  2.1e-06        0.009        
 4e-06              33900         200   3.2987112e-13  2.1e-06        0.009        
 4e-06              34000         200   9.8474325e-14  2.1e-06        0.009        
 4e-06              34100         200   2.0804908e-14  2.1e-06        0.009        
 4e-06              34200         200   3.5479858e-14  2.1e-06        0.009        
 4e-06              34300         200   4.6823841e-14  2.1e-06        0.009        
 4e-06              34400         200   2.8845396e-14  2.1e-06        0.009        
 4e-06              34500         200   2.4894095e-14  2.1e-06        0.009        
 4e-06              34600         200   2.4407576e-14  2.1e-06        0.009        
 4e-06              34700         200   2.4241607e-14  2.1e-06        0.009        
 4e-06              34800         200   2.5678797e-14  2.1e-06        0.009        
 4e-06              34900         200   3.0880003e-14  2.1e-06        0.009        
 4e-06              35000         200   3.3341003e-14  2.1e-06        0.009        
 4e-06              35100         200   1.5611246e-11  2.1e-06        0.009        
 4e-06              35200         200   8.7304571e-13  2.1e-06        0.009        
 4e-06              35300         200   1.28235e-13    2.1e-06        0.009        
 4e-06              35400         200   4.7975116e-13  2.1e-06        0.009        
 4e-06              35500         200   4.0667584e-13  2.1e-06        0.009        
 4e-06              35600         200   1.1230838e-13  2.1e-06        0.009        
 4e-06              35700         200   3.0578739e-14  2.1e-06        0.009        
 4e-06              35800         200   5.2724197e-14  2.1e-06        0.009        
 4e-06              35900         200   5.4930313e-14  2.1e-06        0.009        
 4e-06              36000         200   5.0413822e-14  2.1e-06        0.009        
 4e-06              36100         200   4.2936129e-14  2.1e-06        0.009        
 4e-06              36200         200   4.2946116e-14  2.1e-06        0.009        
 4e-06              36300         200   4.5163485e-14  2.1e-06        0.009        
 4e-06              36400         200   4.6640704e-14  2.1e-06        0.009        
 4e-06              36500         200   4.6581622e-14  2.1e-06        0.009        
 4e-06              36600         200   4.6319151e-14  2.1e-06        0.009        
 4e-06              36700         200   4.5444461e-14  2.1e-06        0.009        
 4e-06              36800         200   4.6152933e-14  2.1e-06        0.009        
 4e-06              36900         200   4.5660145e-14  2.1e-06        0.009        
 4e-06              37000         200   4.479585e-14   2.1e-06        0.009        
 4e-06              37100         200   4.454612e-14   2.1e-06        0.009        
 4e-06              37200         200   4.3595031e-14  2.1e-06        0.009        
 4e-06              37300         200   4.2650848e-14  2.1e-06        0.009        
 4e-06              37400         200   4.3124042e-14  2.1e-06        0.009        
 4e-06              37500         200   4.1053224e-14  2.1e-06        0.009        
 4e-06              37600         200   4.2786157e-14  2.1e-06        0.009        
 4e-06              37700         200   4.3961233e-14  2.1e-06        0.009        
 4e-06              37800         200   4.359215e-14   2.1e-06        0.009        
 4e-06              37900         200   4.3410766e-14  2.1e-06        0.009        
 4e-06              38000         200   3.9866697e-14  2.1e-06        0.009        
Loop time of 4.29106 on 1 procs for 5000 steps with 200 atoms

99.6% CPU use with 1 MPI tasks x no OpenMP threads

MPI task timing breakdown:
Section |  min time  |  avg time  |  max time  |%varavg| %total
---------------------------------------------------------------
Pair    | 2.6156     | 2.6156     | 2.6156     |   0.0 | 60.95
Neigh   | 0.017028   | 0.017028   | 0.017028   |   0.0 |  0.40
Comm    | 0.00059632 | 0.00059632 | 0.00059632 |   0.0 |  0.01
Output  | 0.00055782 | 0.00055782 | 0.00055782 |   0.0 |  0.01
Modify  | 1.6547     | 1.6547     | 1.6547     |   0.0 | 38.56
Other   |            | 0.002613   |            |       |  0.06

Nlocal:            200 ave         200 max         200 min
Histogram: 1 0 0 0 0 0 0 0 0 0
Nghost:              0 ave           0 max           0 min
Histogram: 1 0 0 0 0 0 0 0 0 0
Neighs:           3145 ave        3145 max        3145 min
Histogram: 1 0 0 0 0 0 0 0 0 0

Total # of neighbors = 3145
Ave neighs/atom = 15.725
Neighbor list builds = 83
Dangerous builds not checked
Total wall time: 0:00:26
