LAMMPS (4 Feb 2025 - Development - patch_4Feb2025-583-g3d4b57d7fd-modified)
############################### SIMULATION SETTINGS ###################################################

atom_style      sphere 1
atom_modify     map array
comm_modify vel yes
units           si
newton          off
neighbor        2 bin
neigh_modify    delay 0
timestep        1e-6

##################### SIMULATION BOUNDING BOX, INSERT PARTICLES, AND INTEGRATION #######################

boundary f f f
read_data spheres12.data
Reading data file ...
  orthogonal box = (-10 -10 -10) to (10 10 10)
  1 by 1 by 1 MPI processor grid
  reading atoms ...
  12 atoms
  read_data CPU = 0.003 seconds
fix integr all nve/sphere

# create pair group for contact area outputs
group particles_1_12 id 1 12
2 atoms in group particles_1_12

########################### PARTICLE MATERIAL PROPERTIES AND FORCE MODEL ###############################

variable atomRadius equal 0.5

pair_style granular

# mdr = E, nu, Y, gamma, psi_b, damp
variable YoungsModulus  equal 1e9
variable PoissonsRatio  equal 0.3
variable YieldStress    equal 50e6
variable SurfaceEnergy  equal 0.0
variable psi_b          equal 0.5
variable damp            equal 1.0

# linear_history = k_t, x_gamma,t, mu_s
variable kt       equal 2/7*${YoungsModulus}*${atomRadius}
variable kt       equal 2/7*1000000000*${atomRadius}
variable kt       equal 2/7*1000000000*0.5
variable xgammat  equal 0.0
variable mu_s     equal 0.5

pair_coeff * * mdr ${YoungsModulus} ${PoissonsRatio} ${YieldStress} ${SurfaceEnergy} ${psi_b} ${damp}    damping mdr    tangential linear_history ${kt} ${xgammat} ${mu_s}
pair_coeff * * mdr 1000000000 ${PoissonsRatio} ${YieldStress} ${SurfaceEnergy} ${psi_b} ${damp}    damping mdr    tangential linear_history ${kt} ${xgammat} ${mu_s}
pair_coeff * * mdr 1000000000 0.3 ${YieldStress} ${SurfaceEnergy} ${psi_b} ${damp}    damping mdr    tangential linear_history ${kt} ${xgammat} ${mu_s}
pair_coeff * * mdr 1000000000 0.3 50000000 ${SurfaceEnergy} ${psi_b} ${damp}    damping mdr    tangential linear_history ${kt} ${xgammat} ${mu_s}
pair_coeff * * mdr 1000000000 0.3 50000000 0 ${psi_b} ${damp}    damping mdr    tangential linear_history ${kt} ${xgammat} ${mu_s}
pair_coeff * * mdr 1000000000 0.3 50000000 0 0.5 ${damp}    damping mdr    tangential linear_history ${kt} ${xgammat} ${mu_s}
pair_coeff * * mdr 1000000000 0.3 50000000 0 0.5 1    damping mdr    tangential linear_history ${kt} ${xgammat} ${mu_s}
pair_coeff * * mdr 1000000000 0.3 50000000 0 0.5 1    damping mdr    tangential linear_history 142857142.857143 ${xgammat} ${mu_s}
pair_coeff * * mdr 1000000000 0.3 50000000 0 0.5 1    damping mdr    tangential linear_history 142857142.857143 0 ${mu_s}
pair_coeff * * mdr 1000000000 0.3 50000000 0 0.5 1    damping mdr    tangential linear_history 142857142.857143 0 0.5

######################################### ADD IN PLANES ################################################

variable boxWidth equal 3
variable halfBoxWidth equal ${boxWidth}/2
variable halfBoxWidth equal 3/2

variable plane_disp equal 0.0
variable plane_disp_neg equal 0.0

region plane_yz_pos plane ${halfBoxWidth} 0 0 -1 0 0 side in move v_plane_disp_neg NULL NULL units box
region plane_yz_pos plane 1.5 0 0 -1 0 0 side in move v_plane_disp_neg NULL NULL units box
region plane_yz_neg plane -${halfBoxWidth} 0 0 1 0 0 side in move v_plane_disp NULL NULL units box
region plane_yz_neg plane -1.5 0 0 1 0 0 side in move v_plane_disp NULL NULL units box
region plane_xz_pos plane 0 ${halfBoxWidth} 0 0 -1 0 side in move NULL v_plane_disp_neg NULL units box
region plane_xz_pos plane 0 1.5 0 0 -1 0 side in move NULL v_plane_disp_neg NULL units box
region plane_xz_neg plane 0 -${halfBoxWidth} 0 0 1 0 side in move NULL v_plane_disp NULL units box
region plane_xz_neg plane 0 -1.5 0 0 1 0 side in move NULL v_plane_disp NULL units box
region plane_xy_pos plane 0 0 ${halfBoxWidth} 0 0 -1  side in move NULL NULL v_plane_disp_neg units box
region plane_xy_pos plane 0 0 1.5 0 0 -1  side in move NULL NULL v_plane_disp_neg units box
region plane_xy_neg plane 0 0 -${halfBoxWidth} 0 0 1 side in move NULL NULL v_plane_disp units box
region plane_xy_neg plane 0 0 -1.5 0 0 1 side in move NULL NULL v_plane_disp units box

variable wall_contact_string string "granular mdr ${YoungsModulus} ${PoissonsRatio} ${YieldStress} ${SurfaceEnergy} ${psi_b} ${damp} damping mdr tangential linear_history ${kt} ${xgammat} ${mu_s} "
granular mdr 1000000000 ${PoissonsRatio} ${YieldStress} ${SurfaceEnergy} ${psi_b} ${damp} damping mdr tangential linear_history ${kt} ${xgammat} ${mu_s} 
granular mdr 1000000000 0.3 ${YieldStress} ${SurfaceEnergy} ${psi_b} ${damp} damping mdr tangential linear_history ${kt} ${xgammat} ${mu_s} 
granular mdr 1000000000 0.3 50000000 ${SurfaceEnergy} ${psi_b} ${damp} damping mdr tangential linear_history ${kt} ${xgammat} ${mu_s} 
granular mdr 1000000000 0.3 50000000 0 ${psi_b} ${damp} damping mdr tangential linear_history ${kt} ${xgammat} ${mu_s} 
granular mdr 1000000000 0.3 50000000 0 0.5 ${damp} damping mdr tangential linear_history ${kt} ${xgammat} ${mu_s} 
granular mdr 1000000000 0.3 50000000 0 0.5 1 damping mdr tangential linear_history ${kt} ${xgammat} ${mu_s} 
granular mdr 1000000000 0.3 50000000 0 0.5 1 damping mdr tangential linear_history 142857142.857143 ${xgammat} ${mu_s} 
granular mdr 1000000000 0.3 50000000 0 0.5 1 damping mdr tangential linear_history 142857142.857143 0 ${mu_s} 
granular mdr 1000000000 0.3 50000000 0 0.5 1 damping mdr tangential linear_history 142857142.857143 0 0.5 

fix plane_yz_pos all wall/gran/region ${wall_contact_string} region plane_yz_pos contacts
fix plane_yz_pos all wall/gran/region granular mdr 1000000000 0.3 50000000 0 0.5 1 damping mdr tangential linear_history 142857142.857143 0 0.5  region plane_yz_pos contacts
fix plane_yz_neg all wall/gran/region ${wall_contact_string} region plane_yz_neg contacts
fix plane_yz_neg all wall/gran/region granular mdr 1000000000 0.3 50000000 0 0.5 1 damping mdr tangential linear_history 142857142.857143 0 0.5  region plane_yz_neg contacts
fix plane_xz_pos all wall/gran/region ${wall_contact_string} region plane_xz_pos contacts
fix plane_xz_pos all wall/gran/region granular mdr 1000000000 0.3 50000000 0 0.5 1 damping mdr tangential linear_history 142857142.857143 0 0.5  region plane_xz_pos contacts
fix plane_xz_neg all wall/gran/region ${wall_contact_string} region plane_xz_neg contacts
fix plane_xz_neg all wall/gran/region granular mdr 1000000000 0.3 50000000 0 0.5 1 damping mdr tangential linear_history 142857142.857143 0 0.5  region plane_xz_neg contacts
fix plane_xy_pos all wall/gran/region ${wall_contact_string} region plane_xy_pos contacts
fix plane_xy_pos all wall/gran/region granular mdr 1000000000 0.3 50000000 0 0.5 1 damping mdr tangential linear_history 142857142.857143 0 0.5  region plane_xy_pos contacts
fix plane_xy_neg all wall/gran/region ${wall_contact_string} region plane_xy_neg contacts
fix plane_xy_neg all wall/gran/region granular mdr 1000000000 0.3 50000000 0 0.5 1 damping mdr tangential linear_history 142857142.857143 0 0.5  region plane_xy_neg contacts

compute plane_xy_neg_force all reduce sum f_plane_xy_neg[4]
variable plane_xy_neg_force equal c_plane_xy_neg_force

compute plane_xz_neg_force all reduce sum f_plane_xz_neg[3]
variable plane_xz_neg_force equal c_plane_xz_neg_force

compute plane_yz_neg_force all reduce sum f_plane_yz_neg[2]
variable plane_yz_neg_force equal c_plane_yz_neg_force

#fix print1 all print 1 "${plane_disp} ${plane_xy_neg_force} ${plane_xz_neg_force} ${plane_yz_neg_force}" file force_disp_triaxial12.csv screen no

######################################## SCREEN OUTPUT  ####################################################

compute       1 all erotate/sphere
thermo_style  custom dt step atoms ke c_1 vol
thermo        100
thermo_modify lost ignore norm no

##################################### DEFINE WALL MOVEMENT  #################################################

variable disp_max equal 0.499
variable ddisp equal 0.00001
variable compression_steps equal round(${disp_max}/${ddisp})
variable compression_steps equal round(0.499/${ddisp})
variable compression_steps equal round(0.499/1e-05)
variable output_rate equal round(${compression_steps}/100)
variable output_rate equal round(49900/100)

##################################### SET UP DUMP OUTPUTS  ####################################################

#dump dumpParticles all custom ${output_rate} triaxial_compaction_12.dump id type mass x y z vx vy vz fx fy fz radius
#dump   dmp all vtk ${output_rate} post/triaxial12particles_*.vtk id type mass x y z vx vy vz fx fy fz radius

#################################### COMPRESS THE PARTICLES  ##################################################

run 0

CITE-CITE-CITE-CITE-CITE-CITE-CITE-CITE-CITE-CITE-CITE-CITE-CITE

Your simulation uses code contributions which should be cited:

- MDR contact model command: (i) https://doi.org/10.1016/j.jmps.2023.105492 || (ii) https://doi.org/10.1016/j.jmps.2023.105493 || (iii) https://doi.org/10.31224/4289

@Article{zunker2024mechanicallyI,
 author =  {Zunker, William and Kamrin, Ken},
 title =   {A mechanically-derived contact model for adhesive elastic-perfectly plastic particles,
            Part I: Utilizing the method of dimensionality reduction},
 journal = {Journal of the Mechanics and Physics of Solids},
 year =    {2024},
 volume =  {183},
 pages =   {105492},
}

@Article{zunker2024mechanicallyII,
 author =  {Zunker, William and Kamrin, Ken},
 title =   {A mechanically-derived contact model for adhesive elastic-perfectly plastic particles,
            Part II: Contact under high compaction—modeling a bulk elastic response},
 journal = {Journal of the Mechanics and Physics of Solids},
 year =    {2024},
 volume =  {183},
 pages =   {105493},
}

@Article{zunker2025experimentally,
 author =  {Zunker, William and Dunatunga, Sachith and Thakur, Subhash and Tang, Pingjun and Kamrin, Ken},
 title =   {Experimentally validated DEM for large deformation powder compaction:
            mechanically-derived contact model and screening of non-physical contacts},
 year =    {2025},
 journal = {engrXiv},
}

CITE-CITE-CITE-CITE-CITE-CITE-CITE-CITE-CITE-CITE-CITE-CITE-CITE

Generated 0 of 0 mixed pair_coeff terms from geometric mixing rule
Neighbor list info ...
  update: every = 1 steps, delay = 0 steps, check = yes
  max neighbors/atom: 2000, page size: 100000
  master list distance cutoff = 3.2
  ghost atom cutoff = 3.2
  binsize = 1.6, bins = 13 13 13
  1 neighbor lists, perpetual/occasional/extra = 1 0 0
  (1) pair granular, perpetual
      attributes: half, newton off, size, history
      pair build: half/size/bin/atomonly/newtoff
      stencil: full/bin/3d
      bin: standard
Per MPI rank memory allocation (min/avg/max) = 74.54 | 74.54 | 74.54 Mbytes
      Dt          Step        Atoms        KinEng          c_1           Volume    
 1e-06                  0          12   0              0              8000         
Loop time of 8.47e-07 on 1 procs for 0 steps with 12 atoms

0.0% CPU use with 1 MPI tasks x no OpenMP threads

MPI task timing breakdown:
Section |  min time  |  avg time  |  max time  |%varavg| %total
---------------------------------------------------------------
Pair    | 0          | 0          | 0          |   0.0 |  0.00
Neigh   | 0          | 0          | 0          |   0.0 |  0.00
Comm    | 0          | 0          | 0          |   0.0 |  0.00
Output  | 0          | 0          | 0          |   0.0 |  0.00
Modify  | 0          | 0          | 0          |   0.0 |  0.00
Other   |            | 8.47e-07   |            |       |100.00

Nlocal:             12 ave          12 max          12 min
Histogram: 1 0 0 0 0 0 0 0 0 0
Nghost:              0 ave           0 max           0 min
Histogram: 1 0 0 0 0 0 0 0 0 0
Neighs:             66 ave          66 max          66 min
Histogram: 1 0 0 0 0 0 0 0 0 0

Total # of neighbors = 66
Ave neighs/atom = 5.5
Neighbor list builds = 0
Dangerous builds = 0

# print out contact area evolution for particles 1 and 12
compute Ac_1_12 particles_1_12 pair/local p13 cutoff radius
compute Ac_1_12_sum particles_1_12 reduce sum c_Ac_1_12 inputs local
variable Ac_1_12 equal c_Ac_1_12_sum
#fix logArea all print 100 "${plane_disp} ${Ac_1_12}" file pair_1_12_contact_area_triaxial12.csv screen no

variable plane_disp equal ${ddisp}*elapsed
variable plane_disp equal 1e-05*elapsed
variable plane_disp_neg equal -${ddisp}*elapsed
variable plane_disp_neg equal -1e-05*elapsed

run ${compression_steps}
run 49900
Generated 0 of 0 mixed pair_coeff terms from geometric mixing rule
Neighbor list info ...
  update: every = 1 steps, delay = 0 steps, check = yes
  max neighbors/atom: 2000, page size: 100000
  master list distance cutoff = 3.2
  ghost atom cutoff = 3.2
  binsize = 1.6, bins = 13 13 13
  2 neighbor lists, perpetual/occasional/extra = 1 1 0
  (1) pair granular, perpetual
      attributes: half, newton off, size, history
      pair build: half/size/bin/atomonly/newtoff
      stencil: full/bin/3d
      bin: standard
  (2) compute pair/local, occasional
      attributes: half, newton off, size
      pair build: half/size/bin/atomonly/newtoff
      stencil: full/bin/3d
      bin: standard
Per MPI rank memory allocation (min/avg/max) = 75.17 | 75.17 | 75.17 Mbytes
      Dt          Step        Atoms        KinEng          c_1           Volume    
 1e-06                  0          12   0              0              8000         
 1e-06                100          12   0.37627896     0              8000         
 1e-06                200          12   4.1791248      0              8000         
 1e-06                300          12   14.842751      0              8000         
 1e-06                400          12   36.772259      0              8000         
 1e-06                500          12   77.630616      0              8000         
 1e-06                600          12   145.73848      0              8000         
 1e-06                700          12   250.50491      0              8000         
 1e-06                800          12   402.70153      0              8000         
 1e-06                900          12   614.51551      0              8000         
 1e-06               1000          12   899.53232      0              8000         
 1e-06               1100          12   1272.6697      0              8000         
 1e-06               1200          12   1750.0701      0              8000         
 1e-06               1300          12   2348.9536      0              8000         
 1e-06               1400          12   3087.4362      0              8000         
 1e-06               1500          12   3984.3134      0              8000         
 1e-06               1600          12   5058.8155      0              8000         
 1e-06               1700          12   6330.3362      0              8000         
 1e-06               1800          12   7818.1411      0              8000         
 1e-06               1900          12   9541.0592      0              8000         
 1e-06               2000          12   11498.791      0.0047810266   8000         
 1e-06               2100          12   13704.573      0.10811492     8000         
 1e-06               2200          12   16174.974      0.63000368     8000         
 1e-06               2300          12   18921.112      2.1626376      8000         
 1e-06               2400          12   21953.925      5.2698517      8000         
 1e-06               2500          12   25281.497      10.484444      8000         
 1e-06               2600          12   28908.645      18.482248      8000         
 1e-06               2700          12   32837.664      30.036339      8000         
 1e-06               2800          12   37068.237      46.017479      8000         
 1e-06               2900          12   41597.382      67.391786      8000         
 1e-06               3000          12   46419.434      95.215596      8000         
 1e-06               3100          12   51526.06       130.62752      8000         
 1e-06               3200          12   56906.565      174.8377       8000         
 1e-06               3300          12   62550.059      229.11444      8000         
 1e-06               3400          12   68444.395      294.66357      8000         
 1e-06               3500          12   74576.632      372.08886      8000         
 1e-06               3600          12   80933.178      461.43595      8000         
 1e-06               3700          12   87499.829      562.23674      8000         
 1e-06               3800          12   94261.901      673.47838      8000         
 1e-06               3900          12   101204.31      793.60705      8000         
 1e-06               4000          12   108311.58      920.56829      8000         
 1e-06               4100          12   115567.86      1051.8828      8000         
 1e-06               4200          12   122956.81      1184.754       8000         
 1e-06               4300          12   130461.5       1316.2004      8000         
 1e-06               4400          12   138064.33      1443.2052      8000         
 1e-06               4500          12   145746.82      1562.8719      8000         
 1e-06               4600          12   153422.95      1670.3394      8000         
 1e-06               4700          12   161051.84      1763.0999      8000         
 1e-06               4800          12   168667.52      1842.4996      8000         
 1e-06               4900          12   176255.36      1908.409       8000         
 1e-06               5000          12   183795.82      1961.1714      8000         
 1e-06               5100          12   191266.94      2001.7002      8000         
 1e-06               5200          12   198645         2031.4642      8000         
 1e-06               5300          12   205905.03      2052.4189      8000         
 1e-06               5400          12   213021.06      2066.906       8000         
 1e-06               5500          12   219828.33      2076.3201      8000         
 1e-06               5600          12   226088.26      2080.385       8000         
 1e-06               5700          12   231986.18      2088.93        8000         
 1e-06               5800          12   237570.94      2108.0119      8000         
 1e-06               5900          12   242837.17      2141.5471      8000         
 1e-06               6000          12   247775.44      2192.6781      8000         
 1e-06               6100          12   252375.51      2263.7885      8000         
 1e-06               6200          12   256627.89      2356.5013      8000         
 1e-06               6300          12   260524.71      2471.6922      8000         
 1e-06               6400          12   264060.29      2609.528       8000         
 1e-06               6500          12   267231.53      2769.5274      8000         
 1e-06               6600          12   270038.2       2950.6395      8000         
 1e-06               6700          12   272483.11      3151.335       8000         
 1e-06               6800          12   274572.24      3369.7006      8000         
 1e-06               6900          12   276314.75      3603.531       8000         
 1e-06               7000          12   277722.99      3850.4128      8000         
 1e-06               7100          12   278812.52      4107.7948      8000         
 1e-06               7200          12   279602.05      4373.0439      8000         
 1e-06               7300          12   280113.55      4643.4856      8000         
 1e-06               7400          12   280372.7       4916.43        8000         
 1e-06               7500          12   280411.71      5189.1887      8000         
 1e-06               7600          12   280270.18      5459.0844      8000         
 1e-06               7700          12   279999.69      5723.4596      8000         
 1e-06               7800          12   279696.94      5979.6896      8000         
 1e-06               7900          12   279705.93      6225.2029      8000         
 1e-06               8000          12   279677         6457.5689      8000         
 1e-06               8100          12   279607.39      6683.3974      8000         
 1e-06               8200          12   279535.86      6906.911       8000         
 1e-06               8300          12   279515.96      7125.9155      8000         
 1e-06               8400          12   279726.3       7338.4626      8000         
 1e-06               8500          12   279905.61      7528.2253      8000         
 1e-06               8600          12   279994.55      7695.3391      8000         
 1e-06               8700          12   280109.97      7846.4954      8000         
 1e-06               8800          12   280280.9       7992.1243      8000         
 1e-06               8900          12   280526.73      8146.1487      8000         
 1e-06               9000          12   280875.16      8309.0778      8000         
 1e-06               9100          12   281361.17      8473.1301      8000         
 1e-06               9200          12   282015.74      8638.5101      8000         
 1e-06               9300          12   282868.61      8807.2007      8000         
 1e-06               9400          12   283949.43      8980.8606      8000         
 1e-06               9500          12   285287.01      9160.6973      8000         
 1e-06               9600          12   286908.48      9347.3851      8000         
 1e-06               9700          12   288808.95      9540.3891      8000         
 1e-06               9800          12   291008.88      9739.3515      8000         
 1e-06               9900          12   293533.31      9944.1548      8000         
 1e-06              10000          12   296392.46      10153.993      8000         
 1e-06              10100          12   299589.23      10366.149      8000         
 1e-06              10200          12   303120.5       10580.26       8000         
 1e-06              10300          12   306976.5       10797.104      8000         
 1e-06              10400          12   311140.59      11018.1        8000         
 1e-06              10500          12   315589.46      11245.316      8000         
 1e-06              10600          12   320293.56      11481.375      8000         
 1e-06              10700          12   325217.67      11729.284      8000         
 1e-06              10800          12   330321.65      11992.189      8000         
 1e-06              10900          12   335561.34      12273.086      8000         
 1e-06              11000          12   340889.49      12574.505      8000         
 1e-06              11100          12   346256.88      12898.214      8000         
 1e-06              11200          12   351613.36      13244.969      8000         
 1e-06              11300          12   356921.74      13613.584      8000         
 1e-06              11400          12   362263.57      14000.802      8000         
 1e-06              11500          12   367685.46      14407.905      8000         
 1e-06              11600          12   373173.46      14833.769      8000         
 1e-06              11700          12   378713.19      15276.703      8000         
 1e-06              11800          12   384258.42      15728.278      8000         
 1e-06              11900          12   389798.27      16183.88       8000         
 1e-06              12000          12   395067.85      16636.846      8000         
 1e-06              12100          12   400198.63      17088.171      8000         
 1e-06              12200          12   405211.55      17537.364      8000         
 1e-06              12300          12   410112.47      17984.343      8000         
 1e-06              12400          12   414906.33      18429.831      8000         
 1e-06              12500          12   419598.71      18875.613      8000         
 1e-06              12600          12   424192.44      19324.904      8000         
 1e-06              12700          12   428565.91      19783.784      8000         
 1e-06              12800          12   432825.92      20255.392      8000         
 1e-06              12900          12   437005.65      20738.975      8000         
 1e-06              13000          12   441133.84      21226.416      8000         
 1e-06              13100          12   445218.44      21720.281      8000         
 1e-06              13200          12   449263.02      22225.116      8000         
 1e-06              13300          12   453268.59      22746.27       8000         
 1e-06              13400          12   457229.62      23288.917      8000         
 1e-06              13500          12   461141.35      23859.236      8000         
 1e-06              13600          12   464999.54      24464.127      8000         
 1e-06              13700          12   468798.7       25110.47       8000         
 1e-06              13800          12   472500.62      25806.135      8000         
 1e-06              13900          12   476074.74      26564.004      8000         
 1e-06              14000          12   479545.35      27389.059      8000         
 1e-06              14100          12   482914.85      28284.54       8000         
 1e-06              14200          12   486185.47      29252.687      8000         
 1e-06              14300          12   489361.15      30294.757      8000         
 1e-06              14400          12   492273.69      31409.091      8000         
 1e-06              14500          12   494514.18      32573.659      8000         
 1e-06              14600          12   496511.76      33785.467      8000         
 1e-06              14700          12   498362.32      35051.794      8000         
 1e-06              14800          12   500126.95      36382.324      8000         
 1e-06              14900          12   501872.73      37788.434      8000         
 1e-06              15000          12   503658.95      39269.921      8000         
 1e-06              15100          12   505524.32      40815.737      8000         
 1e-06              15200          12   507507.74      42410.397      8000         
 1e-06              15300          12   509052.44      44020.642      8000         
 1e-06              15400          12   510424.85      45607.21       8000         
 1e-06              15500          12   511477.14      47150.907      8000         
 1e-06              15600          12   511930.85      48638.383      8000         
 1e-06              15700          12   512124.38      50030.203      8000         
 1e-06              15800          12   512194.05      51293.423      8000         
 1e-06              15900          12   512175.22      52402.955      8000         
 1e-06              16000          12   512095.42      53340.637      8000         
 1e-06              16100          12   511970.22      54097.278      8000         
 1e-06              16200          12   511797.58      54671.217      8000         
 1e-06              16300          12   511596.19      55067.665      8000         
 1e-06              16400          12   511390.31      55298.281      8000         
 1e-06              16500          12   511203.2       55383.204      8000         
 1e-06              16600          12   511056.43      55352.575      8000         
 1e-06              16700          12   510973.55      55240.989      8000         
 1e-06              16800          12   510979.82      55085.771      8000         
 1e-06              16900          12   511018.94      54944.912      8000         
 1e-06              17000          12   510839.23      54871.084      8000         
 1e-06              17100          12   510670.95      54882.14       8000         
 1e-06              17200          12   510592.26      55012.23       8000         
 1e-06              17300          12   510473.65      55293.657      8000         
 1e-06              17400          12   509821.33      55718.974      8000         
 1e-06              17500          12   508425.2       56251.107      8000         
 1e-06              17600          12   506922.69      56913.254      8000         
 1e-06              17700          12   505432.36      57751.093      8000         
 1e-06              17800          12   504007.07      58820.863      8000         
 1e-06              17900          12   502565.91      60215.42       8000         
 1e-06              18000          12   501138.89      61987.521      8000         
 1e-06              18100          12   499028.8       64137.707      8000         
 1e-06              18200          12   493241.81      66656.007      8000         
 1e-06              18300          12   486709.22      69522.002      8000         
 1e-06              18400          12   480004.21      72703.075      8000         
 1e-06              18500          12   473373.17      76162.035      8000         
 1e-06              18600          12   466967.02      79858.627      8000         
 1e-06              18700          12   460896.76      83749.858      8000         
 1e-06              18800          12   455246.73      87789.78       8000         
 1e-06              18900          12   450058.54      91935.918      8000         
 1e-06              19000          12   445381.99      96175.252      8000         
 1e-06              19100          12   441278.15      100523.08      8000         
 1e-06              19200          12   437763.14      104946.19      8000         
 1e-06              19300          12   434836.79      109405.67      8000         
 1e-06              19400          12   432488.77      113863.34      8000         
 1e-06              19500          12   430699.83      118281.43      8000         
 1e-06              19600          12   429442.98      122622.26      8000         
 1e-06              19700          12   428684.66      126847.95      8000         
 1e-06              19800          12   428328.48      130917.63      8000         
 1e-06              19900          12   428196.55      134775.59      8000         
 1e-06              20000          12   427597.88      138354.14      8000         
 1e-06              20100          12   425748.44      141440.79      8000         
 1e-06              20200          12   423827.82      143975.56      8000         
 1e-06              20300          12   422029.53      145951.68      8000         
 1e-06              20400          12   420416.81      147364.79      8000         
 1e-06              20500          12   419027.95      148273.8       8000         
 1e-06              20600          12   417858.85      148716.68      8000         
 1e-06              20700          12   416878.1       148666.56      8000         
 1e-06              20800          12   416057.47      148096.03      8000         
 1e-06              20900          12   415366.73      146981.92      8000         
 1e-06              21000          12   414775.28      145311.94      8000         
 1e-06              21100          12   414254.77      143086.56      8000         
 1e-06              21200          12   413734.06      140320.07      8000         
 1e-06              21300          12   412373.7       137040.42      8000         
 1e-06              21400          12   410695.21      133289.46      8000         
 1e-06              21500          12   408430.75      129131.69      8000         
 1e-06              21600          12   405927.7       124609.43      8000         
 1e-06              21700          12   403251.27      119786.82      8000         
 1e-06              21800          12   400435.71      114740.64      8000         
 1e-06              21900          12   397484.88      109586.68      8000         
 1e-06              22000          12   394308.48      104582.2       8000         
 1e-06              22100          12   390933.42      99878.117      8000         
 1e-06              22200          12   387369.16      95602.908      8000         
 1e-06              22300          12   383599.37      91871.749      8000         
 1e-06              22400          12   379598.34      88800.942      8000         
 1e-06              22500          12   375344.08      86475.879      8000         
 1e-06              22600          12   370860.89      84903.263      8000         
 1e-06              22700          12   366151.23      84105.325      8000         
 1e-06              22800          12   361209.31      84104.321      8000         
 1e-06              22900          12   356040.22      84897.625      8000         
 1e-06              23000          12   350662.58      86460.188      8000         
 1e-06              23100          12   345116.82      88752.422      8000         
 1e-06              23200          12   339495.95      91790.621      8000         
 1e-06              23300          12   333687.3       95431.883      8000         
 1e-06              23400          12   327700.18      99552.952      8000         
 1e-06              23500          12   321587.6       104041.28      8000         
 1e-06              23600          12   315413.29      108778.56      8000         
 1e-06              23700          12   309232.19      113641.68      8000         
 1e-06              23800          12   303140         118515.28      8000         
 1e-06              23900          12   297243.14      123286.42      8000         
 1e-06              24000          12   291647.45      127852.5       8000         
 1e-06              24100          12   286443.56      132128.25      8000         
 1e-06              24200          12   281738.47      136042.29      8000         
 1e-06              24300          12   277598.16      139537.18      8000         
 1e-06              24400          12   274126.59      142570.51      8000         
 1e-06              24500          12   271212.37      145112.95      8000         
 1e-06              24600          12   268528.37      147123.47      8000         
 1e-06              24700          12   266518.1       148576.54      8000         
 1e-06              24800          12   265271.22      149482.64      8000         
 1e-06              24900          12   264825.89      149868.7       8000         
 1e-06              25000          12   265195.27      149778.11      8000         
 1e-06              25100          12   266383.27      149277.13      8000         
 1e-06              25200          12   268349.03      148416.99      8000         
 1e-06              25300          12   270306.65      147210.83      8000         
 1e-06              25400          12   272540.67      145679.8       8000         
 1e-06              25500          12   275074.7       143905.2       8000         
 1e-06              25600          12   277868.98      141980.52      8000         
 1e-06              25700          12   280861.82      139998.04      8000         
 1e-06              25800          12   283988.43      138050.21      8000         
 1e-06              25900          12   287187.75      136227         8000         
 1e-06              26000          12   290378.71      134578.07      8000         
 1e-06              26100          12   293523.52      133120.1       8000         
 1e-06              26200          12   296607.69      131949.25      8000         
 1e-06              26300          12   299624.93      131155.87      8000         
 1e-06              26400          12   302615.41      130771.8       8000         
 1e-06              26500          12   305572.83      130791.04      8000         
 1e-06              26600          12   308487.65      131181.94      8000         
 1e-06              26700          12   311349.47      131876.78      8000         
 1e-06              26800          12   314152.42      132778.86      8000         
 1e-06              26900          12   316889.29      133767.68      8000         
 1e-06              27000          12   319555.95      134708.52      8000         
 1e-06              27100          12   322120.91      135461.05      8000         
 1e-06              27200          12   324555.84      135890.05      8000         
 1e-06              27300          12   326829.66      135875.78      8000         
 1e-06              27400          12   328889.23      135312.91      8000         
 1e-06              27500          12   330281.69      133716.24      8000         
 1e-06              27600          12   329638.28      131054.91      8000         
 1e-06              27700          12   328037.36      127321.07      8000         
 1e-06              27800          12   325917.33      122660.17      8000         
 1e-06              27900          12   323405.93      117289.76      8000         
 1e-06              28000          12   320546.78      111541.78      8000         
 1e-06              28100          12   317368.1       105721.12      8000         
 1e-06              28200          12   313916.1       100042.75      8000         
 1e-06              28300          12   310233.7       94704.867      8000         
 1e-06              28400          12   306354.19      89876.573      8000         
 1e-06              28500          12   302311.92      85693.914      8000         
 1e-06              28600          12   298136.83      82229.878      8000         
 1e-06              28700          12   293861.39      79475.257      8000         
 1e-06              28800          12   289522.82      77321.299      8000         
 1e-06              28900          12   285166.39      75606.038      8000         
 1e-06              29000          12   280832.9       74150.094      8000         
 1e-06              29100          12   276597.93      72751.053      8000         
 1e-06              29200          12   272488.85      71238.957      8000         
 1e-06              29300          12   268566.35      69513.495      8000         
 1e-06              29400          12   264945.51      67531.391      8000         
 1e-06              29500          12   261654.36      65280.325      8000         
 1e-06              29600          12   258609.63      62770.995      8000         
 1e-06              29700          12   255839.5       60094.223      8000         
 1e-06              29800          12   253400.35      57359.541      8000         
 1e-06              29900          12   251293.26      54686.718      8000         
 1e-06              30000          12   249489.3       52206.293      8000         
 1e-06              30100          12   247933.05      50046.862      8000         
 1e-06              30200          12   246671.31      48361.721      8000         
 1e-06              30300          12   245727.43      47234.492      8000         
 1e-06              30400          12   245089.53      46668.443      8000         
 1e-06              30500          12   244732.88      46634.46       8000         
 1e-06              30600          12   244634.04      47078.65       8000         
 1e-06              30700          12   244776.41      47932.487      8000         
 1e-06              30800          12   245144.95      49123.892      8000         
 1e-06              30900          12   245702.52      50587.15       8000         
 1e-06              31000          12   246438.58      52268.799      8000         
 1e-06              31100          12   247320.85      54174.572      8000         
 1e-06              31200          12   248299.92      56314.047      8000         
 1e-06              31300          12   249329.77      58655.775      8000         
 1e-06              31400          12   250368.76      61154.112      8000         
 1e-06              31500          12   251379.78      63756.764      8000         
 1e-06              31600          12   252311.71      66409.538      8000         
 1e-06              31700          12   252527.59      69055.013      8000         
 1e-06              31800          12   252438.03      71645.91       8000         
 1e-06              31900          12   252149.26      74149.007      8000         
 1e-06              32000          12   251697.31      76539.619      8000         
 1e-06              32100          12   251102.37      78801.8        8000         
 1e-06              32200          12   250377.5       80923.81       8000         
 1e-06              32300          12   249388.7       82875.3        8000         
 1e-06              32400          12   248054.75      84570.827      8000         
 1e-06              32500          12   246510.48      85977.951      8000         
 1e-06              32600          12   244788.85      87069.778      8000         
 1e-06              32700          12   242926.09      87820.435      8000         
 1e-06              32800          12   240951.82      88208.457      8000         
 1e-06              32900          12   238923.34      88216.633      8000         
 1e-06              33000          12   236972.84      87811.784      8000         
 1e-06              33100          12   235176.94      86991.249      8000         
 1e-06              33200          12   233594.14      85783.149      8000         
 1e-06              33300          12   232256.48      84231.2        8000         
 1e-06              33400          12   231063.68      82397.369      8000         
 1e-06              33500          12   229814.73      80366.279      8000         
 1e-06              33600          12   228715.08      78221.16       8000         
 1e-06              33700          12   227846.27      76046.828      8000         
 1e-06              33800          12   227241.85      73932.693      8000         
 1e-06              33900          12   226942.55      71944.948      8000         
 1e-06              34000          12   226979.34      70148.331      8000         
 1e-06              34100          12   227374.73      68624.913      8000         
 1e-06              34200          12   228140.68      67389          8000         
 1e-06              34300          12   229286.23      66436.221      8000         
 1e-06              34400          12   230818.8       65748.265      8000         
 1e-06              34500          12   232718.67      65274.126      8000         
 1e-06              34600          12   234956.45      64949.901      8000         
 1e-06              34700          12   237495.47      64705.586      8000         
 1e-06              34800          12   240298.79      64471.768      8000         
 1e-06              34900          12   243327.46      64186.278      8000         
 1e-06              35000          12   246540.11      63799.369      8000         
 1e-06              35100          12   249891.89      63272.741      8000         
 1e-06              35200          12   253331.8       62590.115      8000         
 1e-06              35300          12   256810.15      61755.192      8000         
 1e-06              35400          12   260282.81      60790.037      8000         
 1e-06              35500          12   263711.24      59733.295      8000         
 1e-06              35600          12   267063.76      58636.285      8000         
 1e-06              35700          12   270321.08      57558.359      8000         
 1e-06              35800          12   273471.7       56562.046      8000         
 1e-06              35900          12   276025.36      55655.191      8000         
 1e-06              36000          12   277671.27      54780.068      8000         
 1e-06              36100          12   278702.08      54044.977      8000         
 1e-06              36200          12   279135.29      53482.141      8000         
 1e-06              36300          12   278950.85      53096.328      8000         
 1e-06              36400          12   278091.84      52852.785      8000         
 1e-06              36500          12   276595.93      52726.318      8000         
 1e-06              36600          12   274484.66      52702.496      8000         
 1e-06              36700          12   271787.05      52743.065      8000         
 1e-06              36800          12   268570.57      52802.129      8000         
 1e-06              36900          12   264883.91      52837.56       8000         
 1e-06              37000          12   260770.78      52813.294      8000         
 1e-06              37100          12   256294.93      52703.248      8000         
 1e-06              37200          12   251520.81      52496.031      8000         
 1e-06              37300          12   246514.92      52198.643      8000         
 1e-06              37400          12   241336.35      51838.499      8000         
 1e-06              37500          12   236051.19      51466.475      8000         
 1e-06              37600          12   230530.99      51158.037      8000         
 1e-06              37700          12   224831.9       51005.878      8000         
 1e-06              37800          12   219195         51087.112      8000         
 1e-06              37900          12   213774.51      51464.55       8000         
 1e-06              38000          12   208719.8       52178.179      8000         
 1e-06              38100          12   204173.16      53238.452      8000         
 1e-06              38200          12   200268.52      54621.477      8000         
 1e-06              38300          12   197150.81      56266.704      8000         
 1e-06              38400          12   194900.92      58092.885      8000         
 1e-06              38500          12   193569.8       59999.47       8000         
 1e-06              38600          12   193173.44      61875.452      8000         
 1e-06              38700          12   193689.15      63611.808      8000         
 1e-06              38800          12   195056.93      65114.049      8000         
 1e-06              38900          12   197179.13      66310.945      8000         
 1e-06              39000          12   199964.06      67173.129      8000         
 1e-06              39100          12   203313.78      67704.561      8000         
 1e-06              39200          12   206537.34      67923.159      8000         
 1e-06              39300          12   209698.91      67870.023      8000         
 1e-06              39400          12   212990.74      67598.734      8000         
 1e-06              39500          12   216350.18      67172.426      8000         
 1e-06              39600          12   219678.83      66655.657      8000         
 1e-06              39700          12   222844.21      66084.261      8000         
 1e-06              39800          12   225879.54      65489.967      8000         
 1e-06              39900          12   228750         64901.658      8000         
 1e-06              40000          12   231432.52      64333.74       8000         
 1e-06              40100          12   233916.24      63787.895      8000         
 1e-06              40200          12   236200.24      63256.3        8000         
 1e-06              40300          12   238290.68      62725.161      8000         
 1e-06              40400          12   240198.17      62177.851      8000         
 1e-06              40500          12   241937.05      61597.51       8000         
 1e-06              40600          12   243521.73      60967.618      8000         
 1e-06              40700          12   244888.47      60271.31       8000         
 1e-06              40800          12   245447.64      59435.777      8000         
 1e-06              40900          12   245685.9       58426.609      8000         
 1e-06              41000          12   245713.15      57255.612      8000         
 1e-06              41100          12   245574.53      55939.057      8000         
 1e-06              41200          12   245295.74      54497.409      8000         
 1e-06              41300          12   244893.38      52955.91       8000         
 1e-06              41400          12   244382.52      51349.735      8000         
 1e-06              41500          12   243831.69      49814.42       8000         
 1e-06              41600          12   243254.37      48400.984      8000         
 1e-06              41700          12   242477.85      47069.283      8000         
 1e-06              41800          12   241513.72      45827.072      8000         
 1e-06              41900          12   239756.07      44524.57       8000         
 1e-06              42000          12   237373.8       43055.987      8000         
 1e-06              42100          12   234744.81      41643.015      8000         
 1e-06              42200          12   231931.52      40312.339      8000         
 1e-06              42300          12   228935.92      39072.939      8000         
 1e-06              42400          12   225746.23      37930.778      8000         
 1e-06              42500          12   222348.89      36895.022      8000         
 1e-06              42600          12   218698.5       35981.801      8000         
 1e-06              42700          12   214647.12      35216.043      8000         
 1e-06              42800          12   210245.47      34620.785      8000         
 1e-06              42900          12   205531.71      34205.699      8000         
 1e-06              43000          12   200578.63      33994.95       8000         
 1e-06              43100          12   195456.13      33986.177      8000         
 1e-06              43200          12   190228.82      34157.583      8000         
 1e-06              43300          12   184952.07      34469.117      8000         
 1e-06              43400          12   179670.45      34866.761      8000         
 1e-06              43500          12   174418.49      35289.81       8000         
 1e-06              43600          12   169223.1       35679.916      8000         
 1e-06              43700          12   164106.46      35990.914      8000         
 1e-06              43800          12   159087.52      36198.071      8000         
 1e-06              43900          12   154186.33      36296.826      8000         
 1e-06              44000          12   149426.96      36300.354      8000         
 1e-06              44100          12   144835.14      36235.093      8000         
 1e-06              44200          12   140411         36133.354      8000         
 1e-06              44300          12   136182.81      36025.46       8000         
 1e-06              44400          12   132191.02      35932.385      8000         
 1e-06              44500          12   128477.69      35860.362      8000         
 1e-06              44600          12   125084.47      35799.083      8000         
 1e-06              44700          12   122052.38      35722.674      8000         
 1e-06              44800          12   119423.36      35591.653      8000         
 1e-06              44900          12   117231.38      35361.568      8000         
 1e-06              45000          12   115498.71      34993.601      8000         
 1e-06              45100          12   114234.68      34464.293      8000         
 1e-06              45200          12   113435.12      33772.471      8000         
 1e-06              45300          12   113082.91      32941.872      8000         
 1e-06              45400          12   113268.89      32017.499      8000         
 1e-06              45500          12   114094.16      31061.868      8000         
 1e-06              45600          12   115590.36      30141.335      8000         
 1e-06              45700          12   117815.57      29316.931      8000         
 1e-06              45800          12   120811.47      28631.895      8000         
 1e-06              45900          12   124575.14      28113.464      8000         
 1e-06              46000          12   129078.74      27763.791      8000         
 1e-06              46100          12   134338.42      27558.943      8000         
 1e-06              46200          12   140371.84      27456.007      8000         
 1e-06              46300          12   147179.46      27401.261      8000         
 1e-06              46400          12   154720.12      27350.633      8000         
 1e-06              46500          12   162903.78      27280.725      8000         
 1e-06              46600          12   171569.61      27160.074      8000         
 1e-06              46700          12   180503.28      26959.29       8000         
 1e-06              46800          12   189437.05      26679.422      8000         
 1e-06              46900          12   198196.23      26336.443      8000         
 1e-06              47000          12   206520.98      25964.312      8000         
 1e-06              47100          12   214102.44      25606.132      8000         
 1e-06              47200          12   220554.38      25312.112      8000         
 1e-06              47300          12   225530.25      25128.211      8000         
 1e-06              47400          12   228814.64      25087.25       8000         
 1e-06              47500          12   230374.48      25204.456      8000         
 1e-06              47600          12   230169.61      25476.535      8000         
 1e-06              47700          12   228279.91      25884.284      8000         
 1e-06              47800          12   224903.35      26398.057      8000         
 1e-06              47900          12   220331.08      26984.898      8000         
 1e-06              48000          12   214896.98      27615.915      8000         
 1e-06              48100          12   208954.59      28272.416      8000         
 1e-06              48200          12   202876.52      28949.711      8000         
 1e-06              48300          12   197002.89      29657.821      8000         
 1e-06              48400          12   191715.64      30417.951      8000         
 1e-06              48500          12   187427.74      31259.165      8000         
 1e-06              48600          12   184340.37      32206.982      8000         
 1e-06              48700          12   182293.26      33278.236      8000         
 1e-06              48800          12   181185.81      34481.276      8000         
 1e-06              48900          12   181101.89      35801.056      8000         
 1e-06              49000          12   182147.18      37201.316      8000         
 1e-06              49100          12   184365.23      38617.38       8000         
 1e-06              49200          12   187357.35      39915.206      8000         
 1e-06              49300          12   190910.82      40926.844      8000         
 1e-06              49400          12   195007.02      41662.043      8000         
 1e-06              49500          12   199572.66      42126.903      8000         
 1e-06              49600          12   204382.72      42280.987      8000         
 1e-06              49700          12   209699.49      42088.752      8000         
 1e-06              49800          12   215597.68      41583.342      8000         
 1e-06              49900          12   222033.85      40867.693      8000         
Loop time of 1.45978 on 1 procs for 49900 steps with 12 atoms

99.5% CPU use with 1 MPI tasks x no OpenMP threads

MPI task timing breakdown:
Section |  min time  |  avg time  |  max time  |%varavg| %total
---------------------------------------------------------------
Pair    | 0.34189    | 0.34189    | 0.34189    |   0.0 | 23.42
Neigh   | 0          | 0          | 0          |   0.0 |  0.00
Comm    | 0.0023579  | 0.0023579  | 0.0023579  |   0.0 |  0.16
Output  | 0.0038476  | 0.0038476  | 0.0038476  |   0.0 |  0.26
Modify  | 1.1002     | 1.1002     | 1.1002     |   0.0 | 75.37
Other   |            | 0.01145    |            |       |  0.78

Nlocal:             12 ave          12 max          12 min
Histogram: 1 0 0 0 0 0 0 0 0 0
Nghost:              0 ave           0 max           0 min
Histogram: 1 0 0 0 0 0 0 0 0 0
Neighs:             66 ave          66 max          66 min
Histogram: 1 0 0 0 0 0 0 0 0 0

Total # of neighbors = 66
Ave neighs/atom = 5.5
Neighbor list builds = 0
Dangerous builds = 0
Total wall time: 0:00:01
