LAMMPS (4 Feb 2025 - Development - patch_4Feb2025-444-gbb8b6590d5-modified)
  using 1 OpenMP thread(s) per MPI task
# Water with QEqR

boundary        p p p
units           real
atom_style      charge

read_data       data.water
Reading data file ...
  orthogonal box = (0 0 0) to (31.043046 31.043046 31.043046)
  1 by 2 by 2 MPI processor grid
  reading atoms ...
  3000 atoms
  read_data CPU = 0.053 seconds

variable        x index 1
variable        y index 1
variable        z index 1

replicate       $x $y $z
replicate       1 $y $z
replicate       1 1 $z
replicate       1 1 1
Replication is creating a 1x1x1 = 1 times larger system...
  orthogonal box = (0 0 0) to (31.043046 31.043046 31.043046)
  1 by 2 by 2 MPI processor grid
  3000 atoms
  replicate CPU = 0.002 seconds

pair_style      reaxff NULL safezone 3.0 mincap 150
pair_coeff      * * qeq_ff.water O H
WARNING: Changed valency_val to valency_boc for X (src/REAXFF/reaxff_ffield.cpp:300)
neighbor        0.5 bin
neigh_modify    every 1 delay 0 check yes

velocity all create 300.0 4928459 rot yes dist gaussian

fix             1 all qeqr/reaxff 1 0.0 10.0 1.0e-6 reaxff gauss_exp.txt
fix             2 all nvt temp 300 300 50.0
fix             3 all efield 0.0 0.0 0.05

timestep        0.5
thermo          10
thermo_style    custom step temp press density vol

run 20

CITE-CITE-CITE-CITE-CITE-CITE-CITE-CITE-CITE-CITE-CITE-CITE-CITE

Your simulation uses code contributions which should be cited:

- pair reaxff command: doi:10.1016/j.parco.2011.08.005

@Article{Aktulga12,
 author = {H. M. Aktulga and J. C. Fogarty and S. A. Pandit and A. Y. Grama},
 title = {Parallel Reactive Molecular Dynamics: {N}umerical Methods and Algorithmic Techniques},
 journal = {Parallel Computing},
 year =    2012,
 volume =  38,
 number =  {4--5},
 pages =   {245--259}
}

CITE-CITE-CITE-CITE-CITE-CITE-CITE-CITE-CITE-CITE-CITE-CITE-CITE

Neighbor list info ...
  update: every = 1 steps, delay = 0 steps, check = yes
  max neighbors/atom: 2000, page size: 100000
  master list distance cutoff = 10.5
  ghost atom cutoff = 10.5
  binsize = 5.25, bins = 6 6 6
  2 neighbor lists, perpetual/occasional/extra = 2 0 0
  (1) pair reaxff, perpetual
      attributes: half, newton off, ghost
      pair build: half/bin/ghost/newtoff
      stencil: full/ghost/bin/3d
      bin: standard
  (2) fix qeqr/reaxff, perpetual, copy from (1)
      attributes: half, newton off
      pair build: copy
      stencil: none
      bin: none
Per MPI rank memory allocation (min/avg/max) = 260.5 | 262.2 | 263.6 Mbytes
   Step          Temp          Press         Density         Volume    
         0   300            778.75601      1              29915.273    
        10   301.42845      5423.6623      1              29915.273    
        20   298.24708      1549.2264      1              29915.273    
Loop time of 3.10467 on 4 procs for 20 steps with 3000 atoms

Performance: 0.278 ns/day, 86.241 hours/ns, 6.442 timesteps/s, 19.326 katom-step/s
99.6% CPU use with 4 MPI tasks x 1 OpenMP threads

MPI task timing breakdown:
Section |  min time  |  avg time  |  max time  |%varavg| %total
---------------------------------------------------------------
Pair    | 1.668      | 1.6843     | 1.7266     |   1.9 | 54.25
Neigh   | 0.08549    | 0.086004   | 0.086638   |   0.2 |  2.77
Comm    | 0.0135     | 0.055821   | 0.072105   |  10.4 |  1.80
Output  | 4.9632e-05 | 5.4515e-05 | 6.8384e-05 |   0.0 |  0.00
Modify  | 1.2774     | 1.2781     | 1.2786     |   0.0 | 41.17
Other   |            | 0.000458   |            |       |  0.01

Nlocal:            750 ave         760 max         735 min
Histogram: 1 0 0 0 1 0 0 0 0 2
Nghost:        6230.75 ave        6255 max        6191 min
Histogram: 1 0 0 0 0 1 0 0 1 1
Neighs:         276996 ave      280553 max      271385 min
Histogram: 1 0 0 0 0 1 0 0 0 2

Total # of neighbors = 1107985
Ave neighs/atom = 369.32833
Neighbor list builds = 2
Dangerous builds = 0
Total wall time: 0:00:03
