LAMMPS (12 Jun 2025 - Development - patch_12Jun2025-189-gad722310b1-modified)
# 3d Lennard-Jones melt with hybrid mc/md

units           lj
atom_style      atomic

lattice         fcc 0.8442
Lattice spacing in x,y,z = 1.6795962 1.6795962 1.6795962
region          box block 0 10 0 10 0 10
create_box      1 box
Created orthogonal box = (0 0 0) to (16.795962 16.795962 16.795962)
  1 by 2 by 2 MPI processor grid
create_atoms    1 box
Created 4000 atoms
  using lattice units in orthogonal box = (0 0 0) to (16.795962 16.795962 16.795962)
  create_atoms CPU = 0.000 seconds
mass            1 1.0

pair_style      lj/cut 2.5
pair_coeff      1 1 1.0 1.0 2.5

neighbor        0.3 bin
neigh_modify    every 2 delay 4 check yes
velocity        all create 3.0 321654 loop geom

fix             1 all nve
fix             2 all hmc 100 6234 1.5 resample yes

#dump           id all atom 50 dump.melt

#dump           2 all image 25 image.*.jpg type type #               axes yes 0.8 0.02 view 60 -30
#dump_modify    2 pad 3

#dump           3 all movie 25 movie.mpg type type #               axes yes 0.8 0.02 view 60 -30
#dump_modify    3 pad 3

thermo          50
thermo_style custom step temp pe ke etotal f_2 f_2[*]

run             3000
Generated 0 of 0 mixed pair_coeff terms from geometric mixing rule
Neighbor list info ...
  update: every = 2 steps, delay = 4 steps, check = yes
  max neighbors/atom: 2000, page size: 100000
  master list distance cutoff = 2.8
  ghost atom cutoff = 2.8
  binsize = 1.4, bins = 12 12 12
  1 neighbor lists, perpetual/occasional/extra = 1 0 0
  (1) pair lj/cut, perpetual
      attributes: half, newton on
      pair build: half/bin/atomonly/newton
      stencil: half/bin/3d
      bin: standard
Per MPI rank memory allocation (min/avg/max) = 4.18 | 4.18 | 4.18 Mbytes
   Step          Temp          PotEng         KinEng         TotEng          f_2           f_2[1]         f_2[2]         f_2[3]         f_2[4]         f_2[5]    
         0   1.4867733     -6.7733681      2.2296024     -4.5437656      0              0              0              0              0              0            
        50   0.75969453    -5.6913582      1.1392569     -4.5521013      0              0              0              0              0              0            
       100   1.496734      -5.7074069      2.2445397     -3.4628672      1              1              1              4263.8446     -4300.218      -36.373405    
       150   1.2013767     -5.2631278      1.8016145     -3.4615133      1              1              1              4263.8446     -4300.218      -36.373405    
       200   1.5121997     -5.7074069      2.2677324     -3.4396745      0.5            1              2              1775.988      -1764.7259      11.262106    
       250   1.2103143     -5.2474304      1.8150175     -3.4324128      0.5            1              2              1775.988      -1764.7259      11.262106    
       300   1.5062899     -5.7074069      2.25887       -3.4485369      0.33333333     1              3              2003.8864     -1971.4169      32.469502    
       350   1.2118739     -5.2570475      1.8173564     -3.439691       0.33333333     1              3              2003.8864     -1971.4169      32.469502    
       400   1.4938055     -5.7074069      2.2401481     -3.4672588      0.25           1              4              1836.0096     -1801.3879      34.621724    
       450   1.2014022     -5.2582362      1.8016527     -3.4565835      0.25           1              4              1836.0096     -1801.3879      34.621724    
       500   1.5100332     -5.7074069      2.2644835     -3.4429234      0.2            1              5              1839.1485     -1794.9643      44.184216    
       550   1.2087151     -5.246364       1.8126194     -3.4337446      0.2            1              5              1839.1485     -1794.9643      44.184216    
       600   1.493747      -5.7074069      2.2400603     -3.4673466      0.16666667     1              6              1982.3465     -1942.6892      39.657275    
       650   1.1979051     -5.2572288      1.7964084     -3.4608204      0.16666667     1              6              1982.3465     -1942.6892      39.657275    
       700   1.4933626     -5.7074069      2.2394839     -3.467923       0.14285714     1              7              1897.1754     -1866.9213      30.254135    
       750   1.2048323     -5.2689729      1.8067966     -3.4621763      0.14285714     1              7              1897.1754     -1866.9213      30.254135    
       800   1.4993172     -5.7074069      2.2484136     -3.4589933      0.125          1              8              1875.6308     -1849.9426      25.688233    
       850   1.2113806     -5.2686162      1.8166167     -3.4519996      0.125          1              8              1875.6308     -1849.9426      25.688233    
       900   1.4758891     -5.7074069      2.2132802     -3.4941267      0.11111111     1              9              2034.013      -1999.7631      34.249896    
       950   1.1988877     -5.2856998      1.797882      -3.4878177      0.11111111     1              9              2034.013      -1999.7631      34.249896    
      1000   1.52225       -5.7074069      2.2828041     -3.4246028      0.1            1              10             1859.3256     -1829.5903      29.735279    
      1050   1.209679      -5.2299206      1.8140649     -3.4158557      0.1            1              10             1859.3256     -1829.5903      29.735279    
      1100   1.4756352     -5.7074069      2.2128994     -3.4945075      0.090909091    1              11             1994.655      -1954.0733      40.581657    
      1150   1.2039001     -5.2915785      1.8053986     -3.4861799      0.090909091    1              11             1994.655      -1954.0733      40.581657    
      1200   1.5178787     -5.7074069      2.2762488     -3.4311581      0.083333333    1              12             1934.5476     -1900.3762      34.171356    
      1250   1.2158565     -5.2455716      1.8233288     -3.4222428      0.083333333    1              12             1934.5476     -1900.3762      34.171356    
      1300   1.5109681     -5.7074069      2.2658855     -3.4415214      0.076923077    1              13             1930.2954     -1891.9778      38.317563    
      1350   1.2239187     -5.2670058      1.8354191     -3.4315867      0.076923077    1              13             1930.2954     -1891.9778      38.317563    
      1400   1.4676772     -5.7074069      2.2009654     -3.5064415      0.071428571    1              14             1964.8697     -1921.3334      43.536328    
      1450   1.1984911     -5.2928503      1.7972872     -3.4955631      0.071428571    1              14             1964.8697     -1921.3334      43.536328    
      1500   1.5220994     -5.7074069      2.2825784     -3.4248286      0.066666667    1              15             1796.4846     -1749.9519      46.532745    
      1550   1.2254762     -5.2573228      1.8377547     -3.4195681      0.066666667    1              15             1796.4846     -1749.9519      46.532745    
      1600   1.4761823     -5.7074069      2.2137198     -3.4936871      0.0625         1              16             2022.2569     -1995.1599      27.09697     
      1650   1.1931256     -5.276145       1.789241      -3.486904       0.0625         1              16             2022.2569     -1995.1599      27.09697     
      1700   1.4807426     -5.7074069      2.2205586     -3.4868483      0.058823529    1              17             1913.1445     -1883.0342      30.110226    
      1750   1.203015      -5.2837324      1.8040714     -3.4796609      0.058823529    1              17             1913.1445     -1883.0342      30.110226    
      1800   1.5469303     -5.7074069      2.3198153     -3.3875916      0.055555556    1              18             1973.45       -1942.0202      31.429774    
      1850   1.2313677     -5.2274715      1.8465898     -3.3808817      0.055555556    1              18             1973.45       -1942.0202      31.429774    
      1900   1.4960686     -5.7074069      2.2435418     -3.4638651      0.052631579    1              19             1986.4623     -1957.5723      28.890046    
      1950   1.2007925     -5.2580052      1.8007385     -3.4572667      0.052631579    1              19             1986.4623     -1957.5723      28.890046    
      2000   1.5108282     -5.7074069      2.2656757     -3.4417312      0.05           1              20             1865.5085     -1835.7906      29.717891    
      2050   1.2152847     -5.2515433      1.8224713     -3.429072       0.05           1              20             1865.5085     -1835.7906      29.717891    
      2100   1.5069682     -5.7074069      2.2598873     -3.4475197      0.047619048    1              21             1917.4361     -1861.5283      55.907736    
      2150   1.2217027     -5.2703405      1.8320959     -3.4382447      0.047619048    1              21             1917.4361     -1861.5283      55.907736    
      2200   1.5237876     -5.7074069      2.2851099     -3.422297       0.045454545    1              22             1922.782      -1885.8177      36.964324    
      2250   1.2204816     -5.2455653      1.8302647     -3.4153006      0.045454545    1              22             1922.782      -1885.8177      36.964324    
      2300   1.4971169     -5.7074069      2.2451139     -3.4622931      0.043478261    1              23             1865.8977     -1833.3442      32.553557    
      2350   1.2097217     -5.2692793      1.8141289     -3.4551504      0.043478261    1              23             1865.8977     -1833.3442      32.553557    
      2400   1.5206079     -5.7074069      2.2803416     -3.4270653      0.041666667    1              24             1938.7803     -1904.049       34.731313    
      2450   1.2266557     -5.2613186      1.8395235     -3.4217951      0.041666667    1              24             1938.7803     -1904.049       34.731313    
      2500   1.5151176     -5.7074069      2.2721082     -3.4352987      0.04           1              25             1956.8431     -1933.5846      23.258547    
      2550   1.2100499     -5.2397137      1.8146211     -3.4250926      0.04           1              25             1956.8431     -1933.5846      23.258547    
      2600   1.4840842     -5.7074069      2.2255697     -3.4818372      0.038461538    1              26             2011.0774     -1966.7491      44.328289    
      2650   1.1855312     -5.2511789      1.7778522     -3.4733267      0.038461538    1              26             2011.0774     -1966.7491      44.328289    
      2700   1.4995788     -5.7074069      2.2488058     -3.4586011      0.037037037    1              27             1920.5436     -1883.722       36.82163     
      2750   1.2299863     -5.2945415      1.8445183     -3.4500232      0.037037037    1              27             1920.5436     -1883.722       36.82163     
      2800   1.500279      -5.7074069      2.2498559     -3.457551       0.035714286    1              28             1880.4587     -1842.6417      37.816977    
      2850   1.2108389     -5.2674076      1.8158043     -3.4516033      0.035714286    1              28             1880.4587     -1842.6417      37.816977    
      2900   1.4998946     -5.7074069      2.2492794     -3.4581275      0.034482759    1              29             1883.4558     -1855.0569      28.398872    
      2950   1.1857566     -5.2313912      1.7781903     -3.4532009      0.034482759    1              29             1883.4558     -1855.0569      28.398872    
      3000   1.5157418     -5.7074069      2.2730443     -3.4343626      0.033333333    1              30             1913.8309     -1889.8358      23.995063    
Loop time of 2.09794 on 4 procs for 3000 steps with 4000 atoms

Performance: 617749.606 tau/day, 1429.976 timesteps/s, 5.720 Matom-step/s
96.9% CPU use with 4 MPI tasks x no OpenMP threads

MPI task timing breakdown:
Section |  min time  |  avg time  |  max time  |%varavg| %total
---------------------------------------------------------------
Pair    | 1.1012     | 1.1118     | 1.1301     |   1.0 | 52.99
Neigh   | 0.69574    | 0.71054    | 0.72469    |   1.2 | 33.87
Comm    | 0.22456    | 0.24042    | 0.26132    |   3.1 | 11.46
Output  | 0.00088988 | 0.001017   | 0.0013338  |   0.6 |  0.05
Modify  | 0.020259   | 0.020676   | 0.021046   |   0.2 |  0.99
Other   |            | 0.01353    |            |       |  0.65

Nlocal:           1000 ave        1009 max         993 min
Histogram: 2 0 0 0 0 0 1 0 0 1
Nghost:              0 ave           0 max           0 min
Histogram: 4 0 0 0 0 0 0 0 0 0
Neighs:          37659 ave       38532 max       36901 min
Histogram: 1 0 0 0 2 0 0 0 0 1

Total # of neighbors = 150636
Ave neighs/atom = 37.659
Neighbor list builds = 425
Dangerous builds = 0
Total wall time: 0:00:02
