LAMMPS (12 Jun 2025 - Development - patch_12Jun2025-204-ga1261a54c3-modified)
# 3d Lennard-Jones melt with hybrid mc/md via fix hmc

units           lj
atom_style      atomic

lattice         fcc 0.8442
Lattice spacing in x,y,z = 1.6795962 1.6795962 1.6795962
region          box block 0 5 0 5 0 5
create_box      1 box
Created orthogonal box = (0 0 0) to (8.397981 8.397981 8.397981)
  1 by 1 by 1 MPI processor grid
create_atoms    1 box
Created 500 atoms
  using lattice units in orthogonal box = (0 0 0) to (8.397981 8.397981 8.397981)
  create_atoms CPU = 0.001 seconds
mass            1 1.0

pair_style      lj/cut 2.5
pair_coeff      1 1 1.0 1.0 2.5

neighbor        0.3 bin
neigh_modify    every 2 delay 4 check yes
velocity        all create 3.0 321654 loop geom

fix             1 all nve

thermo          50
run             1000  # equilibrate a bit
Generated 0 of 0 mixed pair_coeff terms from geometric mixing rule
Neighbor list info ...
  update: every = 2 steps, delay = 4 steps, check = yes
  max neighbors/atom: 2000, page size: 100000
  master list distance cutoff = 2.8
  ghost atom cutoff = 2.8
  binsize = 1.4, bins = 6 6 6
  1 neighbor lists, perpetual/occasional/extra = 1 0 0
  (1) pair lj/cut, perpetual
      attributes: half, newton on
      pair build: half/bin/atomonly/newton
      stencil: half/bin/3d
      bin: standard
Per MPI rank memory allocation (min/avg/max) = 3.144 | 3.144 | 3.144 Mbytes
   Step          Temp          E_pair         E_mol          TotEng         Press     
         0   3             -6.7733681      0             -2.2823681     -3.7077825    
        50   1.6542532     -4.7662516      0             -2.2898346      5.7313127    
       100   1.6353666     -4.7366686      0             -2.2885248      5.856866     
       150   1.6554591     -4.7658595      0             -2.2876372      5.8777828    
       200   1.653556      -4.7620199      0             -2.2866467      5.7477385    
       250   1.6325395     -4.7316631      0             -2.2877514      5.9295202    
       300   1.5898436     -4.6660099      0             -2.286014       6.1545142    
       350   1.6881218     -4.8122255      0             -2.2851072      5.5960771    
       400   1.6411399     -4.7465497      0             -2.2897633      5.8110516    
       450   1.6904488     -4.8181142      0             -2.2875123      5.5945433    
       500   1.6318101     -4.7328756      0             -2.2900559      5.8047779    
       550   1.6866656     -4.8110436      0             -2.2861053      5.5595233    
       600   1.6697273     -4.7878837      0             -2.288302       5.6917243    
       650   1.6825496     -4.8079765      0             -2.2891997      5.504302     
       700   1.6209771     -4.714972       0             -2.2883693      5.941359     
       750   1.6254552     -4.7190048      0             -2.2856983      6.1116249    
       800   1.6071926     -4.6922082      0             -2.2862408      6.1828827    
       850   1.6365981     -4.7378492      0             -2.2878618      5.9233303    
       900   1.689755      -4.8171554      0             -2.2875922      5.5188776    
       950   1.6203063     -4.7149635      0             -2.289365       6.0618396    
      1000   1.6414426     -4.7440077      0             -2.286768       5.8340026    
Loop time of 0.270233 on 1 procs for 1000 steps with 500 atoms

Performance: 1598622.201 tau/day, 3700.514 timesteps/s, 1.850 Matom-step/s
98.3% CPU use with 1 MPI tasks x no OpenMP threads

MPI task timing breakdown:
Section |  min time  |  avg time  |  max time  |%varavg| %total
---------------------------------------------------------------
Pair    | 0.1541     | 0.1541     | 0.1541     |   0.0 | 57.03
Neigh   | 0.10435    | 0.10435    | 0.10435    |   0.0 | 38.61
Comm    | 0.0080996  | 0.0080996  | 0.0080996  |   0.0 |  3.00
Output  | 0.00012011 | 0.00012011 | 0.00012011 |   0.0 |  0.04
Modify  | 0.0024472  | 0.0024472  | 0.0024472  |   0.0 |  0.91
Other   |            | 0.001111   |            |       |  0.41

Nlocal:            500 ave         500 max         500 min
Histogram: 1 0 0 0 0 0 0 0 0 0
Nghost:           1797 ave        1797 max        1797 min
Histogram: 1 0 0 0 0 0 0 0 0 0
Neighs:          19001 ave       19001 max       19001 min
Histogram: 1 0 0 0 0 0 0 0 0 0

Total # of neighbors = 19001
Ave neighs/atom = 38.002
Neighbor list builds = 144
Dangerous builds = 1

fix             2 all hmc 100 6234 1.5 resample yes

#dump           id all atom 50 dump.melt

#dump           2 all image 25 image.*.jpg type type #               axes yes 0.8 0.02 view 60 -30
#dump_modify    2 pad 3

#dump           3 all movie 25 movie.mpg type type #               axes yes 0.8 0.02 view 60 -30
#dump_modify    3 pad 3

thermo_style    custom step temp pe ke etotal f_2 f_2[*]

timestep        0.005
run             50000
Generated 0 of 0 mixed pair_coeff terms from geometric mixing rule
Per MPI rank memory allocation (min/avg/max) = 4.088 | 4.088 | 4.088 Mbytes
   Step          Temp          PotEng         KinEng         TotEng          f_2           f_2[1]         f_2[2]         f_2[3]         f_2[4]         f_2[5]    
      1000   1.5402189     -4.7440077      2.3057076     -2.4383         0              0              0              0              0              0            
      1050   1.5667281     -4.785651       2.345392      -2.440259       0              0              0              0              0              0            
      1100   1.4889035     -4.7865043      2.2288886     -2.5576157      1              1              1             -21.24834       21.532574      0.28423391   
      1150   1.5429502     -4.8701082      2.3097964     -2.5603119      1              1              1             -21.24834       21.532574      0.28423391   
      1200   1.4807386     -4.845085       2.2166656     -2.6284194      1              2              2             -29.290334      27.780654     -1.5096803    
      1250   1.5243309     -4.9098025      2.2819234     -2.6278791      1              2              2             -29.290334      27.780654     -1.5096803    
      1300   1.5481569     -4.8818764      2.3175909     -2.5642855      1              3              3             -18.395676      19.410285      1.014609     
      1350   1.5477281     -4.8810867      2.316949      -2.5641377      1              3              3             -18.395676      19.410285      1.014609     
      1400   1.5292389     -4.8282351      2.2892706     -2.5389645      1              4              4              26.820637     -27.424486     -0.60384887   
      1450   1.5022791     -4.7881531      2.2489118     -2.5392413      1              4              4              26.820637     -27.424486     -0.60384887   
      1500   1.5713337     -4.9148607      2.3522865     -2.5625742      1              5              5             -43.312834      42.987076     -0.32575707   
      1550   1.5093288     -4.8209763      2.2594652     -2.5615111      1              5              5             -43.312834      42.987076     -0.32575707   
      1600   1.529529      -4.8655549      2.2897049     -2.57585        1              6              6              24.652944     -24.788557     -0.13561224   
      1650   1.5658261     -4.9168537      2.3440417     -2.572812       1              6              6              24.652944     -24.788557     -0.13561224   
      1700   1.4810346     -4.8655549      2.2171087     -2.6484461      0.85714286     6              7              7.4974603     -6.2411945      1.2562658    
      1750   1.5511081     -4.946784       2.3220088     -2.6247752      0.85714286     6              7              7.4974603     -6.2411945      1.2562658    
      1800   1.4929766     -4.8655549      2.234986      -2.6305688      0.75           6              8             -1.8187977      13.263296      11.444498    
      1850   1.521058      -4.8967427      2.2770238     -2.6197189      0.75           6              8             -1.8187977      13.263296      11.444498    
      1900   1.4974181     -4.8655549      2.2416349     -2.62392        0.66666667     6              9              55.779041     -50.378013      5.4010286    
      1950   1.5172392     -4.8907929      2.2713071     -2.6194858      0.66666667     6              9              55.779041     -50.378013      5.4010286    
      2000   1.5208973     -4.8655549      2.2767833     -2.5887715      0.6            6              10             5.3847912     -3.3165973      2.068194     
      2050   1.4529124     -4.7434304      2.1750098     -2.5684206      0.6            6              10             5.3847912     -3.3165973      2.068194     
      2100   1.5409943     -4.8655549      2.3068685     -2.5586864      0.54545455     6              11             12.672709     -2.0882501      10.584459    
      2150   1.4935779     -4.792368       2.2358862     -2.5564818      0.54545455     6              11             12.672709     -2.0882501      10.584459    
      2200   1.4840427     -4.8577329      2.2216119     -2.636121       0.58333333     7              12             3.9109784     -4.1218203     -0.21084193   
      2250   1.4262144     -4.7708803      2.1350429     -2.6358374      0.58333333     7              12             3.9109784     -4.1218203     -0.21084193   
      2300   1.451844      -4.8819461      2.1734105     -2.7085356      0.61538462     8              13            -12.106592      11.718413     -0.3881789    
      2350   1.4927958     -4.944294       2.2347153     -2.7095787      0.61538462     8              13            -12.106592      11.718413     -0.3881789    
      2400   1.4522053     -4.8786488      2.1739513     -2.7046975      0.64285714     9              14             1.6486475     -2.22492       -0.5762725    
      2450   1.4802424     -4.9191666      2.2159229     -2.7032438      0.64285714     9              14             1.6486475     -2.22492       -0.5762725    
      2500   1.4356922     -4.9138873      2.1492312     -2.7646562      0.66666667     10             15            -17.619265      18.240585      0.62132004   
      2550   1.4796489     -4.9825555      2.2150344     -2.7675212      0.66666667     10             15            -17.619265      18.240585      0.62132004   
      2600   1.5010234     -4.9998303      2.247032      -2.7527983      0.6875         11             16            -42.971487      42.632789     -0.3386984    
      2650   1.44241       -4.911158       2.1592878     -2.7518702      0.6875         11             16            -42.971487      42.632789     -0.3386984    
      2700   1.5225153     -4.9998303      2.2792054     -2.7206249      0.64705882     11             17             11.573291     -10.247685      1.3256052    
      2750   1.4727937     -4.9055539      2.2047722     -2.7007817      0.64705882     11             17             11.573291     -10.247685      1.3256052    
      2800   1.5500492     -4.9998303      2.3204237     -2.6794066      0.61111111     11             18             59.025463     -47.391667      11.633796    
      2850   1.4624901     -4.8528883      2.1893477     -2.6635406      0.61111111     11             18             59.025463     -47.391667      11.633796    
      2900   1.5192238     -4.9998303      2.274278      -2.7255523      0.57894737     11             19             51.661408     -44.355598      7.3058098    
      2950   1.4169885     -4.8396141      2.1212318     -2.7183823      0.57894737     11             19             51.661408     -44.355598      7.3058098    
      3000   1.5165116     -4.8396811      2.2702178     -2.5694633      0.6            12             20             80.074584     -76.978793      3.0957906    
      3050   1.539847      -4.87185        2.3051509     -2.5666991      0.6            12             20             80.074584     -76.978793      3.0957906    
      3100   1.4733697     -4.8393312      2.2056344     -2.6336968      0.61904762     13             21             0.17495558     0.22086386     0.39581944   
      3150   1.5116764     -4.8978385      2.2629795     -2.6348589      0.61904762     13             21             0.17495558     0.22086386     0.39581944   
      3200   1.4602368     -4.8174144      2.1859745     -2.6314399      0.63636364     14             22             10.958411     -10.93288       0.025531608  
      3250   1.4711438     -4.8352128      2.2023022     -2.6329105      0.63636364     14             22             10.958411     -10.93288       0.025531608  
      3300   1.4236245     -4.8022129      2.1311658     -2.6710471      0.65217391     15             23             7.6007532     -8.7305701     -1.1298169    
      3350   1.5187278     -4.9442796      2.2735354     -2.6707441      0.65217391     15             23             7.6007532     -8.7305701     -1.1298169    
      3400   1.4807236     -4.9389001      2.2166432     -2.7222569      0.66666667     16             24            -68.343588      69.497242      1.1536538    
      3450   1.4080737     -4.829173       2.1078863     -2.7212867      0.66666667     16             24            -68.343588      69.497242      1.1536538    
      3500   1.5231386     -5.0521331      2.2801385     -2.7719946      0.68           17             25            -56.616497      56.108703     -0.50779473   
      3550   1.4226425     -4.9023481      2.1296958     -2.7726523      0.68           17             25            -56.616497      56.108703     -0.50779473   
      3600   1.539531      -4.7843423      2.3046779     -2.4796643      0.69230769     18             26             133.89539     -133.7241       0.17129168   
      3650   1.5751636     -4.8376645      2.3580199     -2.4796446      0.69230769     18             26             133.89539     -133.7241       0.17129168   
      3700   1.5220151     -4.9092743      2.2784565     -2.6308178      0.7037037      19             27            -62.466019      61.598056     -0.86796336   
      3750   1.5202565     -4.9057886      2.275824      -2.6299646      0.7037037      19             27            -62.466019      61.598056     -0.86796336   
      3800   1.4875171     -4.9092743      2.2268131     -2.6824613      0.67857143     19             28            -19.304957      19.746279      0.44132203   
      3850   1.4629155     -4.8628316      2.1899845     -2.6728471      0.67857143     19             28            -19.304957      19.746279      0.44132203   
      3900   1.4718848     -4.9092743      2.2034115     -2.7058628      0.65517241     19             29            -16.796542      22.224735      5.4281933    
      3950   1.4968141     -4.9313508      2.2407307     -2.6906201      0.65517241     19             29            -16.796542      22.224735      5.4281933    
      4000   1.5481918     -4.9092743      2.3176431     -2.5916313      0.63333333     19             30             1.8967294      5.4624575      7.3591869    
      4050   1.5791147     -4.9452886      2.3639346     -2.5813539      0.63333333     19             30             1.8967294      5.4624575      7.3591869    
      4100   1.5698091     -4.9092743      2.3500042     -2.5592701      0.61290323     19             31             30.305527     -24.784494      5.5210328    
      4150   1.5739431     -4.9071195      2.3561928     -2.5509267      0.61290323     19             31             30.305527     -24.784494      5.5210328    
      4200   1.4840928     -4.9092743      2.2216869     -2.6875874      0.59375        19             32             20.015286     -16.516962      3.4983243    
      4250   1.511635      -4.9297615      2.2629176     -2.6668438      0.59375        19             32             20.015286     -16.516962      3.4983243    
      4300   1.4453328     -4.9092743      2.1636631     -2.7456112      0.57575758     19             33             36.224424     -26.225641      9.9987838    
      4350   1.4792135     -4.9482987      2.2143826     -2.7339161      0.57575758     19             33             36.224424     -26.225641      9.9987838    
      4400   1.3820142     -4.9092743      2.0688753     -2.8403991      0.55882353     19             34            -15.321513      20.537637      5.2161242    
      4450   1.3842178     -4.9048773      2.0721741     -2.8327031      0.55882353     19             34            -15.321513      20.537637      5.2161242    
      4500   1.4050782     -4.9092743      2.1034021     -2.8058722      0.54285714     19             35            -10.290223      13.267638      2.9774141    
      4550   1.3993711     -4.9080021      2.0948585     -2.8131435      0.54285714     19             35            -10.290223      13.267638      2.9774141    
      4600   1.548636      -5.0028712      2.3183081     -2.6845631      0.55555556     20             36            -46.798445      43.715388     -3.0830569    
      4650   1.5232779     -4.966211       2.280347      -2.685864       0.55555556     20             36            -46.798445      43.715388     -3.0830569    
      4700   1.566258      -4.9538902      2.3446882     -2.6092019      0.56756757     21             37             24.490526     -25.313329     -0.82280225   
      4750   1.5110476     -4.8677041      2.2620383     -2.6056658      0.56756757     21             37             24.490526     -25.313329     -0.82280225   
      4800   1.6274505     -4.8674601      2.4362933     -2.4311668      0.57894737     22             38             43.215028     -42.295242      0.91978619   
      4850   1.6262113     -4.8680586      2.4344382     -2.4336203      0.57894737     22             38             43.215028     -42.295242      0.91978619   
      4900   1.5209242     -4.7991317      2.2768236     -2.5223081      0.58974359     23             39             34.164213     -34.284923     -0.12070971   
      4950   1.5895662     -4.9024014      2.3795805     -2.5228208      0.58974359     23             39             34.164213     -34.284923     -0.12070971   
      5000   1.534737      -4.8278759      2.2975012     -2.5303746      0.6            24             40            -14.372093      14.414806      0.042712702  
      5050   1.5528193     -4.8546445      2.3245705     -2.530074       0.6            24             40            -14.372093      14.414806      0.042712702  
      5100   1.522533      -4.8075965      2.2792319     -2.5283646      0.6097561      25             41             10.139667     -10.000608      0.13905879   
      5150   1.5239364     -4.8101442      2.2813328     -2.5288114      0.6097561      25             41             10.139667     -10.000608      0.13905879   
      5200   1.4614857     -4.7534771      2.1878441     -2.565633       0.61904762     26             42             27.059688     -26.961091      0.098596932  
      5250   1.5496312     -4.8891539      2.3197978     -2.569356       0.61904762     26             42             27.059688     -26.961091      0.098596932  
      5300   1.4940949     -4.9058441      2.23666       -2.6691841      0.62790698     27             43            -76.183497      75.257101     -0.92639679   
      5350   1.453847      -4.8453828      2.1764089     -2.6689739      0.62790698     27             43            -76.183497      75.257101     -0.92639679   
      5400   1.4014064     -4.8303678      2.0979054     -2.7324623      0.63636364     28             44             37.738194     -37.619952      0.11824103   
      5450   1.5386556     -5.0372038      2.3033675     -2.7338363      0.63636364     28             44             37.738194     -37.619952      0.11824103   
      5500   1.5510966     -4.8127465      2.3219916     -2.4907549      0.64444444     29             45             8.8106482     -8.7972116      0.013436515  
      5550   1.5079463     -4.747559       2.2573955     -2.4901635      0.64444444     29             45             8.8106482     -8.7972116      0.013436515  
      5600   1.5067555     -4.8994256      2.2556129     -2.6438126      0.65217391     30             46            -43.339553      42.598065     -0.74148806   
      5650   1.4608557     -4.8287979      2.1869009     -2.641897       0.65217391     30             46            -43.339553      42.598065     -0.74148806   
      5700   1.4707643     -4.8994256      2.2017341     -2.6976914      0.63829787     30             47            -3.7947151      5.5851773      1.7904621    
      5750   1.4590569     -4.8829685      2.1842082     -2.6987603      0.63829787     30             47            -3.7947151      5.5851773      1.7904621    
      5800   1.5317995     -4.9840028      2.2931038     -2.690899       0.64583333     31             48            -42.288628      42.053        -0.23562841   
      5850   1.450074      -4.8605098      2.1707607     -2.6897491      0.64583333     31             48            -42.288628      42.053        -0.23562841   
      5900   1.5003987     -4.9277849      2.2460969     -2.681688       0.65306122     32             49             28.10897      -28.113986     -0.0050154405 
      5950   1.4574758     -4.8647523      2.1818412     -2.6829111      0.65306122     32             49             28.10897      -28.113986     -0.0050154405 
      6000   1.5116609     -4.9413068      2.2629563     -2.6783505      0.66           33             50            -6.7609678      6.5899082     -0.1710596    
      6050   1.5163281     -4.9496717      2.2699432     -2.6797285      0.66           33             50            -6.7609678      6.5899082     -0.1710596    
      6100   1.4944111     -4.8574122      2.2371334     -2.6202788      0.66666667     34             51             41.947305     -41.600843      0.34646159   
      6150   1.5128925     -4.8835557      2.2648        -2.6187557      0.66666667     34             51             41.947305     -41.600843      0.34646159   
      6200   1.4379869     -4.8108203      2.1526663     -2.658154       0.67307692     35             52             23.295956     -23.806816     -0.51086015   
      6250   1.5332064     -4.9523874      2.2952099     -2.6571775      0.67307692     35             52             23.295956     -23.806816     -0.51086015   
      6300   1.5802818     -4.9003526      2.3656819     -2.5346707      0.67924528     36             53            -44.766175      45.560657      0.7944821    
      6350   1.5747321     -4.8929203      2.3573739     -2.5355464      0.67924528     36             53            -44.766175      45.560657      0.7944821    
      6400   1.4276        -4.9003526      2.1371173     -2.7632354      0.66666667     36             54             35.380714     -34.95981       0.42090433   
      6450   1.3961825     -4.8442866      2.0900852     -2.7542014      0.66666667     36             54             35.380714     -34.95981       0.42090433   
      6500   1.4889714     -4.9003526      2.2289902     -2.6713625      0.65454545     36             55            -56.779507      61.047301      4.2677941    
      6550   1.5032002     -4.9127169      2.2502906     -2.6624263      0.65454545     36             55            -56.779507      61.047301      4.2677941    
      6600   1.4657484     -4.9003526      2.1942254     -2.7061273      0.64285714     36             56            -9.6259407      13.720028      4.0940869    
      6650   1.4563709     -4.8784145      2.1801873     -2.6982272      0.64285714     36             56            -9.6259407      13.720028      4.0940869    
      6700   1.4805316     -4.9003526      2.2163558     -2.6839969      0.63157895     36             57             35.705728     -31.080029      4.6256992    
      6750   1.4604286     -4.8660869      2.1862616     -2.6798253      0.63157895     36             57             35.705728     -31.080029      4.6256992    
      6800   1.4828685     -4.9003526      2.2198541     -2.6804986      0.62068966     36             58             2.3667973      0.37440929     2.7412066    
      6850   1.5021951     -4.9071997      2.2487861     -2.6584136      0.62068966     36             58             2.3667973      0.37440929     2.7412066    
      6900   1.4695599     -4.9003526      2.1999312     -2.7004215      0.61016949     36             59             5.4525264      5.3910855      10.843612    
      6950   1.4959128     -4.9366749      2.2393815     -2.6972934      0.61016949     36             59             5.4525264      5.3910855      10.843612    
      7000   1.407569      -4.9003526      2.1071308     -2.7932219      0.6            36             60             3.2374185     -2.1225365      1.1148819    
      7050   1.4471426     -4.9514563      2.1663725     -2.7850838      0.6            36             60             3.2374185     -2.1225365      1.1148819    
      7100   1.6032027     -5.0053475      2.3999944     -2.6053531      0.60655738     37             61            -52.497403      55.213609      2.7162055    
      7150   1.4651983     -4.7987581      2.1934019     -2.6053562      0.60655738     37             61            -52.497403      55.213609      2.7162055    
      7200   1.4561842     -4.7464708      2.1799078     -2.566563       0.61290323     38             62             129.43833     -129.48427     -0.0459389    
      7250   1.4399497     -4.7220926      2.1556047     -2.5664879      0.61290323     38             62             129.43833     -129.48427     -0.0459389    
      7300   1.5030381     -4.8204565      2.250048      -2.5704084      0.61904762     39             63            -36.992837      37.631871      0.6390341    
      7350   1.5581706     -4.9035933      2.3325814     -2.5710119      0.61904762     39             63            -36.992837      37.631871      0.6390341    
      7400   1.4842009     -4.8337167      2.2218488     -2.6118679      0.625          40             64            -6.6301167      5.3350511     -1.2950656    
      7450   1.4953049     -4.8474875      2.2384715     -2.609016       0.625          40             64            -6.6301167      5.3350511     -1.2950656    
      7500   1.4392066     -4.9468665      2.1544922     -2.7923742      0.63076923     41             65            -56.574884      58.894993      2.3201093    
      7550   1.4371993     -4.9459951      2.1514874     -2.7945077      0.63076923     41             65            -56.574884      58.894993      2.3201093    
      7600   1.5580152     -4.9234167      2.3323488     -2.5910679      0.63636364     42             66             11.724894     -14.313538     -2.5886431    
      7650   1.5022997     -4.8382096      2.2489427     -2.589267       0.63636364     42             66             11.724894     -14.313538     -2.5886431    
      7700   1.4353097     -4.8359763      2.1486586     -2.6873176      0.64179104     43             67             43.720211     -42.905595      0.81461671   
      7750   1.4075017     -4.7929522      2.1070301     -2.6859221      0.64179104     43             67             43.720211     -42.905595      0.81461671   
      7800   1.4975831     -4.8359763      2.2418819     -2.5940944      0.63235294     43             68            -28.14593       29.06133       0.91540022   
      7850   1.4724439     -4.7906221      2.2042485     -2.5863736      0.63235294     43             68            -28.14593       29.06133       0.91540022   
      7900   1.4508944     -4.8359763      2.171989      -2.6639873      0.62318841     43             69             32.044202     -28.654767      3.3894342    
      7950   1.4693868     -4.8493163      2.1996721     -2.6496442      0.62318841     43             69             32.044202     -28.654767      3.3894342    
      8000   1.4563163     -4.8359763      2.1801055     -2.6558707      0.61428571     43             70            -72.066597      79.107266      7.0406683    
      8050   1.4675822     -4.8415704      2.1969705     -2.6445999      0.61428571     43             70            -72.066597      79.107266      7.0406683    
      8100   1.4545774     -4.8359763      2.1775023     -2.6584739      0.6056338      43             71            -39.608339      43.939876      4.3315369    
      8150   1.5032838     -4.8997502      2.2504159     -2.6493343      0.6056338      43             71            -39.608339      43.939876      4.3315369    
      8200   1.4658378     -4.8359763      2.1943591     -2.6416171      0.59722222     43             72             8.5377825     -4.3111704      4.2266121    
      8250   1.4896717     -4.8642016      2.2300386     -2.634163       0.59722222     43             72             8.5377825     -4.3111704      4.2266121    
      8300   1.4510605     -4.8359763      2.1722376     -2.6637386      0.5890411      43             73            -12.554258      15.589021      3.034763     
      8350   1.472554      -4.868125       2.2044133     -2.6637117      0.5890411      43             73            -12.554258      15.589021      3.034763     
      8400   1.4471659     -4.929001       2.1664073     -2.7625937      0.59459459     44             74            -46.512385      45.648671     -0.86371426   
      8450   1.4392364     -4.9153926      2.1545369     -2.7608557      0.59459459     44             74            -46.512385      45.648671     -0.86371426   
      8500   1.4038145     -4.929001       2.1015103     -2.8274908      0.58666667     44             75             91.606568     -89.384915      2.2216527    
      8550   1.3925512     -4.9214207      2.0846491     -2.8367716      0.58666667     44             75             91.606568     -89.384915      2.2216527    
      8600   1.4902959     -4.9375102      2.2309729     -2.7065372      0.59210526     45             76            -4.2545676     -0.28706074    -4.5416283    
      8650   1.4885377     -4.9339156      2.2283409     -2.7055747      0.59210526     45             76            -4.2545676     -0.28706074    -4.5416283    
      8700   1.5225318     -4.8986265      2.2792301     -2.6193964      0.5974026      46             77             19.441832     -18.931786      0.51004552   
      8750   1.4558366     -4.7959787      2.1793873     -2.6165914      0.5974026      46             77             19.441832     -18.931786      0.51004552   
      8800   1.4162867     -4.8469891      2.1201812     -2.7268079      0.6025641      47             78             25.818726     -27.446523     -1.6277972    
      8850   1.468308      -4.9222445      2.198057      -2.7241875      0.6025641      47             78             25.818726     -27.446523     -1.6277972    
      8900   1.5004649     -4.9652027      2.2461959     -2.7190068      0.60759494     48             79            -59.106844      59.029548     -0.077296332  
      8950   1.4529843     -4.8940808      2.1751176     -2.7189632      0.60759494     48             79            -59.106844      59.029548     -0.077296332  
      9000   1.5948377     -4.9641037      2.3874721     -2.5766317      0.6125         49             80             0.54951078     0.53870093     1.0882117    
      9050   1.5009502     -4.8237561      2.2469224     -2.5768337      0.6125         49             80             0.54951078     0.53870093     1.0882117    
      9100   1.5175399     -4.9641037      2.2717572     -2.6923465      0.60493827     49             81             93.011336     -91.661143      1.350193     
      9150   1.5561929     -5.0109747      2.3296207     -2.6813539      0.60493827     49             81             93.011336     -91.661143      1.350193     
      9200   1.4886742     -4.9641037      2.2285452     -2.7355585      0.59756098     49             82             36.706028     -31.020247      5.6857807    
      9250   1.4806805     -4.9369976      2.2165787     -2.7204189      0.59756098     49             82             36.706028     -31.020247      5.6857807    
      9300   1.4880959     -4.9641037      2.2276795     -2.7364242      0.59036145     49             83             50.471954     -41.145744      9.3262102    
      9350   1.4224382     -4.8533865      2.12939       -2.7239965      0.59036145     49             83             50.471954     -41.145744      9.3262102    
      9400   1.509321      -4.9641037      2.2594535     -2.7046502      0.58333333     49             84             20.856341     -15.407111      5.4492301    
      9450   1.5108351     -4.9303467      2.2617202     -2.6686266      0.58333333     49             84             20.856341     -15.407111      5.4492301    
      9500   1.5643879     -4.9641037      2.3418887     -2.622215       0.57647059     49             85            -13.737093      29.978434      16.241341    
      9550   1.5268475     -4.9027485      2.2856907     -2.6170578      0.57647059     49             85            -13.737093      29.978434      16.241341    
      9600   1.5197436     -4.9116416      2.2750561     -2.6365855      0.58139535     50             86             26.231083     -23.031082      3.2000014    
      9650   1.5352372     -4.939022       2.2982501     -2.6407719      0.58139535     50             86             26.231083     -23.031082      3.2000014    
      9700   1.5380186     -4.8975587      2.3024138     -2.5951449      0.5862069      51             87             7.0414479     -8.5211545     -1.4797066    
      9750   1.5431652     -4.9054745      2.3101183     -2.5953561      0.5862069      51             87             7.0414479     -8.5211545     -1.4797066    
      9800   1.5867787     -4.7838476      2.3754077     -2.4084399      0.59090909     52             88             56.855534     -56.782227      0.073306673  
      9850   1.6062302     -4.8125421      2.4045267     -2.4080154      0.59090909     52             88             56.855534     -56.782227      0.073306673  
      9900   1.5551328     -4.8373878      2.3280339     -2.5093539      0.59550562     53             89            -26.770084      26.441472     -0.32861295   
      9950   1.5490835     -4.8272155      2.318978      -2.5082375      0.59550562     53             89            -26.770084      26.441472     -0.32861295   
     10000   1.4268256     -4.8373878      2.1359579     -2.7014298      0.58888889     53             90             20.313215     -18.76506       1.5481558    
     10050   1.4855438     -4.9166706      2.223859      -2.6928116      0.58888889     53             90             20.313215     -18.76506       1.5481558    
     10100   1.5213132     -4.8373878      2.2774058     -2.5599819      0.58241758     53             91            -4.1632439      9.2052356      5.0419916    
     10150   1.5543102     -4.8806858      2.3268024     -2.5538834      0.58241758     53             91            -4.1632439      9.2052356      5.0419916    
     10200   1.4679738     -4.8373878      2.1975568     -2.6398309      0.57608696     53             92             32.47742      -29.437854      3.0395662    
     10250   1.4997035     -4.8716286      2.2450561     -2.6265725      0.57608696     53             92             32.47742      -29.437854      3.0395662    
     10300   1.4345207     -4.8373878      2.1474775     -2.6899102      0.56989247     53             93            -56.949058      64.75714       7.8080812    
     10350   1.5248202     -4.9600817      2.2826558     -2.6774259      0.56989247     53             93            -56.949058      64.75714       7.8080812    
     10400   1.4875523     -4.8373878      2.2268658     -2.610522       0.56382979     53             94            -27.208606      32.259169      5.0505628    
     10450   1.5434626     -4.9056248      2.3105635     -2.5950613      0.56382979     53             94            -27.208606      32.259169      5.0505628    
     10500   1.5746492     -4.8373878      2.3572499     -2.4801379      0.55789474     53             95            -11.954084      18.253311      6.2992275    
     10550   1.6028111     -4.8628462      2.3994082     -2.463438       0.55789474     53             95            -11.954084      18.253311      6.2992275    
     10600   1.498137      -4.8373878      2.242711      -2.5946767      0.55208333     53             96             45.191763     -36.801616      8.3901474    
     10650   1.5571285     -4.9099983      2.3310214     -2.5789769      0.55208333     53             96             45.191763     -36.801616      8.3901474    
     10700   1.5849888     -4.8373878      2.3727282     -2.4646596      0.54639175     53             97            -20.044749      30.753111      10.708362    
     10750   1.592427      -4.8402683      2.3838632     -2.456405       0.54639175     53             97            -20.044749      30.753111      10.708362    
     10800   1.4591478     -4.8373878      2.1843442     -2.6530436      0.54081633     53             98             29.656341     -24.504816      5.1515255    
     10850   1.5107396     -4.8989096      2.2615772     -2.6373324      0.54081633     53             98             29.656341     -24.504816      5.1515255    
     10900   1.484336      -4.8373878      2.2220509     -2.6153368      0.53535354     53             99            -15.842832      22.569701      6.7268685    
     10950   1.560677      -4.9482685      2.3363335     -2.611935       0.53535354     53             99            -15.842832      22.569701      6.7268685    
     11000   1.4803416     -4.8373878      2.2160713     -2.6213164      0.53           53             100           -3.2107186      4.8305199      1.6198014    
     11050   1.492335      -4.8541522      2.2340254     -2.6201268      0.53           53             100           -3.2107186      4.8305199      1.6198014    
     11100   1.6251476     -4.8373878      2.432846      -2.4045418      0.52475248     53             101           -19.588415      20.688718      1.1003037    
     11150   1.574654      -4.7582832      2.3572571     -2.4010261      0.52475248     53             101           -19.588415      20.688718      1.1003037    
     11200   1.5477524     -4.8373878      2.3169853     -2.5204025      0.51960784     53             102            34.153462     -30.696173      3.4572882    
     11250   1.5729752     -4.8614402      2.3547439     -2.5066963      0.51960784     53             102            34.153462     -30.696173      3.4572882    
     11300   1.4941547     -4.8373878      2.2367495     -2.6006382      0.51456311     53             103           -11.335351      18.995657      7.6603063    
     11350   1.5043921     -4.849477       2.252075      -2.5974019      0.51456311     53             103           -11.335351      18.995657      7.6603063    
     11400   1.4374155     -4.8373878      2.1518111     -2.6855767      0.50961538     53             104            21.168502     -19.365907      1.8025941    
     11450   1.5117045     -4.9315325      2.2630216     -2.6685109      0.50961538     53             104            21.168502     -19.365907      1.8025941    
     11500   1.4507943     -4.8373878      2.1718391     -2.6655486      0.5047619      53             105           -52.217541      61.897448      9.6799073    
     11550   1.4667001     -4.8524242      2.1956501     -2.6567741      0.5047619      53             105           -52.217541      61.897448      9.6799073    
     11600   1.4922086     -4.8373878      2.2338362     -2.6035515      0.5            53             106            28.498148     -24.033772      4.4643761    
     11650   1.507397      -4.8573723      2.2565733     -2.600799       0.5            53             106            28.498148     -24.033772      4.4643761    
     11700   1.5647479     -4.8373878      2.3424276     -2.4949602      0.4953271      53             107           -33.642432      36.406995      2.7645632    
     11750   1.5300345     -4.7678071      2.2904617     -2.4773455      0.4953271      53             107           -33.642432      36.406995      2.7645632    
     11800   1.5072919     -4.8373878      2.256416      -2.5809717      0.49074074     53             108            28.292843     -18.945539      9.3473037    
     11850   1.5614514     -4.9248303      2.3374927     -2.5873375      0.49074074     53             108            28.292843     -18.945539      9.3473037    
     11900   1.4309777     -4.8576993      2.1421736     -2.7155257      0.49541284     54             109           -10.155777      6.8050104     -3.3507665    
     11950   1.4526291     -4.8910879      2.1745858     -2.7165021      0.49541284     54             109           -10.155777      6.8050104     -3.3507665    
     12000   1.5205369     -4.9020274      2.2762438     -2.6257836      0.5            55             110           -22.164023      21.653187     -0.51083655   
     12050   1.5303629     -4.9155485      2.2909533     -2.6245952      0.5            55             110           -22.164023      21.653187     -0.51083655   
     12100   1.5029432     -4.8901203      2.249906      -2.6402143      0.5045045      56             111            5.9535429     -5.3440524      0.60949058   
     12150   1.4190728     -4.7646609      2.124352      -2.6403089      0.5045045      56             111            5.9535429     -5.3440524      0.60949058   
     12200   1.5382925     -4.8369215      2.3028238     -2.5340977      0.50892857     57             112            26.599368     -27.241442     -0.6420748    
     12250   1.6220915     -4.9626024      2.4282709     -2.5343315      0.50892857     57             112            26.599368     -27.241442     -0.6420748    
     12300   1.4106844     -4.8369215      2.1117945     -2.725127       0.50442478     57             113            22.640366     -21.439829      1.2005374    
     12350   1.4899278     -4.9435171      2.230422      -2.7130951      0.50442478     57             113            22.640366     -21.439829      1.2005374    
     12400   1.554305      -4.8369215      2.3267946     -2.510127       0.5            57             114           -31.731604      39.265377      7.5337726    
     12450   1.6225188     -4.9139731      2.4289106     -2.4850625      0.5            57             114           -31.731604      39.265377      7.5337726    
     12500   1.4494842     -4.8369215      2.1698779     -2.6670436      0.49565217     57             115           -5.5578188      18.636799      13.078981    
     12550   1.4784595     -4.8886092      2.2132539     -2.6753553      0.49565217     57             115           -5.5578188      18.636799      13.078981    
     12600   1.4902382     -4.8728917      2.2308866     -2.642005       0.5            58             116           -17.985069      15.746919     -2.2381504    
     12650   1.4428938     -4.8041147      2.1600121     -2.6441026      0.5            58             116           -17.985069      15.746919     -2.2381504    
     12700   1.4477883     -4.9253663      2.167339      -2.7580273      0.5042735      59             117           -26.2373        25.236208     -1.0010926    
     12750   1.4557887     -4.9366721      2.1793157     -2.7573564      0.5042735      59             117           -26.2373        25.236208     -1.0010926    
     12800   1.426663      -4.9253663      2.1357145     -2.7896518      0.5            59             118            57.051959     -56.437356      0.61460363   
     12850   1.4254826     -4.9054553      2.1339474     -2.7715079      0.5            59             118            57.051959     -56.437356      0.61460363   
     12900   1.5162186     -4.9253663      2.2697793     -2.655587       0.49579832     59             119            25.678529     -15.982838      9.6956909    
     12950   1.4791574     -4.8651901      2.2142986     -2.6508916      0.49579832     59             119            25.678529     -15.982838      9.6956909    
     13000   1.4713129     -4.9253663      2.2025554     -2.7228109      0.49166667     59             120            62.688677     -59.872612      2.8160658    
     13050   1.3815326     -4.790348       2.0681543     -2.7221937      0.49166667     59             120            62.688677     -59.872612      2.8160658    
     13100   1.4128159     -4.9351798      2.1149853     -2.8201945      0.49586777     60             121           -4.9067794      4.9228437      0.016064329  
     13150   1.3998584     -4.9148067      2.095588      -2.8192187      0.49586777     60             121           -4.9067794      4.9228437      0.016064329  
     13200   1.4581513     -4.9185253      2.1828525     -2.7356728      0.5            61             122            8.3272584     -8.3352465     -0.0079880998 
     13250   1.429746      -4.874231       2.1403298     -2.7339012      0.5            61             122            8.3272584     -8.3352465     -0.0079880998 
     13300   1.4805939     -4.869622       2.2164491     -2.6531729      0.50406504     62             123            24.451653     -24.048179      0.4034733    
     13350   1.4825671     -4.8724147      2.2194029     -2.6530118      0.50406504     62             123            24.451653     -24.048179      0.4034733    
     13400   1.4375704     -4.8842916      2.1520428     -2.7322488      0.50806452     63             124           -7.3348027      8.0280665      0.69326384   
     13450   1.5187233     -5.0079833      2.2735288     -2.7344545      0.50806452     63             124           -7.3348027      8.0280665      0.69326384   
     13500   1.3917544     -4.8769825      2.0834563     -2.7935262      0.512          64             125            3.6545383     -3.8018962     -0.1473579    
     13550   1.4373519     -4.9482712      2.1517158     -2.7965553      0.512          64             125            3.6545383     -3.8018962     -0.1473579    
     13600   1.4758989     -4.939669       2.2094207     -2.7302483      0.51587302     65             126           -31.343225      30.201496     -1.1417288    
     13650   1.4289869     -4.8697059      2.1391934     -2.7305125      0.51587302     65             126           -31.343225      30.201496     -1.1417288    
     13700   1.5156296     -4.8780592      2.2688976     -2.6091616      0.51968504     66             127            30.804906     -31.225081     -0.42017509   
     13750   1.4387694     -4.7620124      2.1538378     -2.6081746      0.51968504     66             127            30.804906     -31.225081     -0.42017509   
     13800   1.4662125     -4.9268863      2.1949202     -2.7319661      0.5234375      67             128           -24.413542      25.471614      1.0580713    
     13850   1.5091333     -4.9898942      2.2591726     -2.7307216      0.5234375      67             128           -24.413542      25.471614      1.0580713    
     13900   1.415568      -4.9268863      2.1191052     -2.807781       0.51937984     67             129            20.669444     -20.10512       0.56432406   
     13950   1.3948639     -4.885883       2.0881113     -2.7977717      0.51937984     67             129            20.669444     -20.10512       0.56432406   
     14000   1.5020034     -4.9268863      2.2484992     -2.6783871      0.51538462     67             130           -33.561495      37.835652      4.2741569    
     14050   1.4649149     -4.8641639      2.1929776     -2.6711863      0.51538462     67             130           -33.561495      37.835652      4.2741569    
     14100   1.5385615     -4.9268863      2.3032266     -2.6236596      0.51145038     67             131            52.742658     -50.000555      2.7421034    
     14150   1.5272331     -4.8949346      2.2862679     -2.6086667      0.51145038     67             131            52.742658     -50.000555      2.7421034    
     14200   1.4899319     -4.9268863      2.230428      -2.6964582      0.50757576     67             132            16.480422     -9.1124645      7.3679575    
     14250   1.4403791     -4.8367594      2.1562474     -2.680512       0.50757576     67             132            16.480422     -9.1124645      7.3679575    
     14300   1.4971877     -4.8154594      2.24129       -2.5741693      0.5112782      68             133            55.713454     -48.198713      7.5147414    
     14350   1.4923893     -4.8078134      2.2341068     -2.5737066      0.5112782      68             133            55.713454     -48.198713      7.5147414    
     14400   1.5032684     -4.9076913      2.2503927     -2.6572986      0.51492537     69             134           -46.115986      45.94039      -0.17559612   
     14450   1.5229135     -4.9352032      2.2798014     -2.6554017      0.51492537     69             134           -46.115986      45.94039      -0.17559612   
     14500   1.524667      -4.8791721      2.2824265     -2.5967457      0.51851852     70             135            14.259589     -14.057032      0.20255682   
     14550   1.4725644     -4.8001541      2.2044289     -2.5957252      0.51851852     70             135            14.259589     -14.057032      0.20255682   
     14600   1.4815664     -4.9811714      2.2179048     -2.7632666      0.52205882     71             136           -50.999619      49.960827     -1.0387921    
     14650   1.4342657     -4.9075548      2.1470958     -2.7604589      0.52205882     71             136           -50.999619      49.960827     -1.0387921    
     14700   1.5669483     -4.9811714      2.3457216     -2.6354498      0.51824818     71             137            33.283615     -32.500151      0.78346356   
     14750   1.5239209     -4.9120266      2.2813097     -2.6307169      0.51824818     71             137            33.283615     -32.500151      0.78346356   
     14800   1.4335342     -4.9811714      2.1460008     -2.8351706      0.51449275     71             138            23.811487     -21.878843      1.9326437    
     14850   1.3803212     -4.8954818      2.0663408     -2.8291411      0.51449275     71             138            23.811487     -21.878843      1.9326437    
     14900   1.4794425     -4.9811714      2.2147254     -2.766446       0.51079137     71             139            16.853908     -13.875296      2.978612     
     14950   1.4534598     -4.9195822      2.1758294     -2.7437528      0.51079137     71             139            16.853908     -13.875296      2.978612     
     15000   1.5010587     -4.9811714      2.2470849     -2.7340865      0.50714286     71             140            24.204558     -12.085741      12.118818    
     15050   1.4691116     -4.915761       2.19926       -2.716501       0.50714286     71             140            24.204558     -12.085741      12.118818    
     15100   1.5768711     -4.9811714      2.360576      -2.6205954      0.5035461      71             141            23.017307     -13.946723      9.070584     
     15150   1.5171186     -4.8851956      2.2711266     -2.614069       0.5035461      71             141            23.017307     -13.946723      9.070584     
     15200   1.4986525     -4.9811714      2.2434829     -2.7376885      0.5            71             142            35.869137     -33.322062      2.5470753    
     15250   1.4500544     -4.9068194      2.1707315     -2.7360879      0.5            71             142            35.869137     -33.322062      2.5470753    
     15300   1.4461514     -4.9811714      2.1648887     -2.8162827      0.4965035      71             143            28.505316     -27.002841      1.5024743    
     15350   1.4312634     -4.9466185      2.1426014     -2.8040171      0.4965035      71             143            28.505316     -27.002841      1.5024743    
     15400   1.4223635     -4.9811714      2.1292782     -2.8518932      0.49305556     71             144            40.424446     -33.618769      6.805677     
     15450   1.4339225     -4.9791683      2.146582      -2.8325863      0.49305556     71             144            40.424446     -33.618769      6.805677     
     15500   1.4550049     -4.9811714      2.1781423     -2.803029       0.48965517     71             145            39.698979     -30.671631      9.0273477    
     15550   1.4264738     -4.9245943      2.1354313     -2.789163       0.48965517     71             145            39.698979     -30.671631      9.0273477    
     15600   1.4745657     -4.9811714      2.2074248     -2.7737466      0.48630137     71             146            36.746648     -30.043123      6.7035256    
     15650   1.4067385     -4.867208       2.1058876     -2.7613204      0.48630137     71             146            36.746648     -30.043123      6.7035256    
     15700   1.6132496     -4.9811714      2.4150347     -2.5661367      0.4829932      71             147            9.8296677     -2.6927255      7.1369421    
     15750   1.5150873     -4.8088169      2.2680857     -2.5407312      0.4829932      71             147            9.8296677     -2.6927255      7.1369421    
     15800   1.5707234     -4.9811714      2.3513729     -2.6297985      0.47972973     71             148            76.868331     -64.223548      12.644783    
     15850   1.5180992     -4.8878108      2.2725945     -2.6152163      0.47972973     71             148            76.868331     -64.223548      12.644783    
     15900   1.560949      -4.9811714      2.3367406     -2.6444308      0.47651007     71             149            52.786123     -44.40316       8.3829626    
     15950   1.5370192     -4.9410888      2.3009178     -2.6401711      0.47651007     71             149            52.786123     -44.40316       8.3829626    
     16000   1.39364       -4.9811714      2.0862791     -2.8948923      0.47333333     71             150            40.463983     -37.49218       2.9718024    
     16050   1.4118302     -5.0099666      2.1135098     -2.8964568      0.47333333     71             150            40.463983     -37.49218       2.9718024    
     16100   1.4721881     -5.0145041      2.2038656     -2.8106385      0.47682119     72             151           -16.666334      16.773309      0.10697446   
     16150   1.3903947     -4.8912006      2.0814209     -2.8097797      0.47682119     72             151           -16.666334      16.773309      0.10697446   
     16200   1.4769699     -4.9543415      2.2110239     -2.7433176      0.48026316     73             152            30.081279     -30.24163      -0.16035159   
     16250   1.4472714     -4.9079209      2.1665653     -2.7413556      0.48026316     73             152            30.081279     -30.24163      -0.16035159   
     16300   1.506874      -4.9543415      2.2557903     -2.6985512      0.47712418     73             153            2.2146881     -1.0579193      1.1567688    
     16350   1.5056197     -4.9463299      2.2539127     -2.6924172      0.47712418     73             153            2.2146881     -1.0579193      1.1567688    
     16400   1.4503028     -4.9543415      2.1711033     -2.7832382      0.47402597     73             154            50.05404      -45.85296       4.2010798    
     16450   1.4652921     -4.9698392      2.1935422     -2.776297       0.47402597     73             154            50.05404      -45.85296       4.2010798    
     16500   1.5269641     -4.9543415      2.2858653     -2.6684762      0.47096774     73             155            34.056025     -30.831821      3.2242035    
     16550   1.4351626     -4.8155196      2.1484384     -2.6670812      0.47096774     73             155            34.056025     -30.831821      3.2242035    
     16600   1.4506095     -4.9187345      2.1715624     -2.7471721      0.47435897     74             156            17.803498     -16.794403      1.0090953    
     16650   1.4428889     -4.9070438      2.1600047     -2.7470391      0.47435897     74             156            17.803498     -16.794403      1.0090953    
     16700   1.5295049     -4.9204801      2.2896688     -2.6308113      0.47770701     75             157           -0.87281667     0.065889707   -0.80692696   
     16750   1.4726119     -4.8331142      2.2045001     -2.6286141      0.47770701     75             157           -0.87281667     0.065889707   -0.80692696   
     16800   1.4681515     -4.8709366      2.1978228     -2.6731138      0.48101266     76             158            24.771746     -23.060607      1.7111384    
     16850   1.4990918     -4.9188026      2.2441404     -2.6746623      0.48101266     76             158            24.771746     -23.060607      1.7111384    
     16900   1.5373661     -4.9102688      2.3014371     -2.6088317      0.48427673     77             159           -19.666067      19.173022     -0.49304541   
     16950   1.4585118     -4.7918181      2.1833922     -2.608426       0.48427673     77             159           -19.666067      19.173022     -0.49304541   
     17000   1.4065677     -4.9102688      2.1056319     -2.8046369      0.48125        77             160           -9.8348956      10.163037      0.32814164   
     17050   1.4605873     -4.9748091      2.1864993     -2.7883099      0.48125        77             160           -9.8348956      10.163037      0.32814164   
     17100   1.5060252     -4.9102688      2.2545197     -2.6557491      0.47826087     77             161           -16.395097      24.16345       7.7683528    
     17150   1.491624      -4.8890484      2.2329611     -2.6560873      0.47826087     77             161           -16.395097      24.16345       7.7683528    
     17200   1.4842187     -4.9000336      2.2218755     -2.6781581      0.48148148     78             162            5.117613      -5.5670513     -0.44943826   
     17250   1.512568      -4.9429695      2.2643143     -2.6786551      0.48148148     78             162            5.117613      -5.5670513     -0.44943826   
     17300   1.5577092     -4.9381689      2.3318907     -2.6062782      0.48466258     79             163           -19.067695      19.3737        0.30600509   
     17350   1.5103532     -4.867063       2.2609987     -2.6060643      0.48466258     79             163           -19.067695      19.3737        0.30600509   
     17400   1.5516925     -4.8443622      2.3228836     -2.5214786      0.48780488     80             164            46.90336      -46.650513      0.25284699   
     17450   1.5987955     -4.916613       2.3933969     -2.5232161      0.48780488     80             164            46.90336      -46.650513      0.25284699   
     17500   1.4787806     -4.8488644      2.2137346     -2.6351298      0.49090909     81             165           -2.251067       2.202524      -0.048543037  
     17550   1.4693246     -4.8339042      2.199579      -2.6343252      0.49090909     81             165           -2.251067       2.202524      -0.048543037  
     17600   1.4823786     -4.9162987      2.2191208     -2.697178       0.4939759      82             166           -33.717191      34.239537      0.52234575   
     17650   1.4152164     -4.8159636      2.118579      -2.6973847      0.4939759      82             166           -33.717191      34.239537      0.52234575   
     17700   1.4938897     -4.9829234      2.2363529     -2.7465704      0.49700599     83             167           -33.312314      31.212172     -2.100142     
     17750   1.4009272     -4.8403837      2.097188      -2.7431957      0.49700599     83             167           -33.312314      31.212172     -2.100142     
     17800   1.4788569     -4.9829234      2.2138488     -2.7690745      0.49404762     83             168            19.610613     -17.899628      1.710985     
     17850   1.3854444     -4.8452814      2.0740102     -2.7712712      0.49404762     83             168            19.610613     -17.899628      1.710985     
     17900   1.5085881     -4.8728663      2.2583564     -2.6145099      0.49704142     84             169            55.028512     -55.127691     -0.099179595  
     17950   1.4726333     -4.8177802      2.204532      -2.6132482      0.49704142     84             169            55.028512     -55.127691     -0.099179595  
     18000   1.5044873     -4.8728663      2.2522175     -2.6206488      0.49411765     84             170            38.552481     -37.975627      0.57685404   
     18050   1.4910729     -4.8519795      2.2321362     -2.6198433      0.49411765     84             170            38.552481     -37.975627      0.57685404   
     18100   1.461833      -4.8728663      2.1883641     -2.6845023      0.49122807     84             171            29.643371     -28.633303      1.0100677    
     18150   1.5080752     -4.9331731      2.2575885     -2.6755846      0.49122807     84             171            29.643371     -28.633303      1.0100677    
     18200   1.4743677     -4.8728663      2.2071284     -2.6657379      0.48837209     84             172            7.2958194     -3.409163       3.8866563    
     18250   1.4589258     -4.8340057      2.184012      -2.6499937      0.48837209     84             172            7.2958194     -3.409163       3.8866563    
     18300   1.4753187     -4.8728663      2.2085522     -2.6643142      0.48554913     84             173            39.544116     -30.900841      8.6432741    
     18350   1.5186186     -4.9343395      2.273372      -2.6609675      0.48554913     84             173            39.544116     -30.900841      8.6432741    
     18400   1.4414737     -4.8728663      2.1578861     -2.7149803      0.48275862     84             174            11.814634     -9.1029548      2.7116789    
     18450   1.5475168     -5.0055045      2.3166327     -2.6888718      0.48275862     84             174            11.814634     -9.1029548      2.7116789    
     18500   1.5381458     -4.8728663      2.3026042     -2.5702621      0.48           84             175            3.5276289      10.431949      13.959578    
     18550   1.4956799     -4.7960496      2.2390328     -2.5570168      0.48           84             175            3.5276289      10.431949      13.959578    
     18600   1.4856859     -4.8728663      2.2240717     -2.6487946      0.47727273     84             176            1.0345905      5.8466156      6.8812061    
     18650   1.4733852     -4.8325109      2.2056577     -2.6268533      0.47727273     84             176            1.0345905      5.8466156      6.8812061    
     18700   1.5239257     -4.8728663      2.2813167     -2.5915496      0.47457627     84             177           -29.419247      38.742223      9.3229764    
     18750   1.5660906     -4.9310767      2.3444377     -2.586639       0.47457627     84             177           -29.419247      38.742223      9.3229764    
     18800   1.4423187     -4.8728663      2.1591512     -2.7137152      0.47191011     84             178           -6.1404678      9.0764448      2.935977     
     18850   1.4796535     -4.9221323      2.2150412     -2.7070911      0.47191011     84             178           -6.1404678      9.0764448      2.935977     
     18900   1.4870007     -4.8728663      2.2260401     -2.6468263      0.46927374     84             179            0.11642464     4.2716186      4.3880432    
     18950   1.4946449     -4.8708828      2.2374834     -2.6333994      0.46927374     84             179            0.11642464     4.2716186      4.3880432    
     19000   1.4599448     -4.8728663      2.1855374     -2.6873289      0.46666667     84             180           -30.551589      37.064783      6.5131941    
     19050   1.4754446     -4.8780134      2.2087406     -2.6692728      0.46666667     84             180           -30.551589      37.064783      6.5131941    
     19100   1.4368965     -4.8728663      2.1510341     -2.7218323      0.4640884      84             181           -57.087598      67.573079      10.485481    
     19150   1.5013855     -4.9688246      2.2475742     -2.7212504      0.4640884      84             181           -57.087598      67.573079      10.485481    
     19200   1.5310045     -4.937575       2.2919137     -2.6456613      0.46703297     85             182           -32.354346      33.008691      0.65434525   
     19250   1.549476      -4.964513       2.3195656     -2.6449473      0.46703297     85             182           -32.354346      33.008691      0.65434525   
     19300   1.4694382     -4.8867672      2.1997491     -2.6870182      0.46994536     86             183            25.403903     -24.722545      0.68135774   
     19350   1.5188807     -4.963513       2.2737644     -2.6897486      0.46994536     86             183            25.403903     -24.722545      0.68135774   
     19400   1.4711856     -4.8348159      2.2023649     -2.632451       0.47282609     87             184            25.975675     -26.257594     -0.28191924   
     19450   1.4999259     -4.8771126      2.2453891     -2.6317235      0.47282609     87             184            25.975675     -26.257594     -0.28191924   
     19500   1.4276349     -4.9050577      2.1371694     -2.7678883      0.47567568     88             185           -35.120935      34.512393     -0.60854148   
     19550   1.4615582     -4.9563064      2.1879526     -2.7683538      0.47567568     88             185           -35.120935      34.512393     -0.60854148   
     19600   1.4776812     -4.8898999      2.2120887     -2.6778112      0.47849462     89             186            7.5789197     -7.8566634     -0.27774369   
     19650   1.4233372     -4.8068774      2.1307358     -2.6761417      0.47849462     89             186            7.5789197     -7.8566634     -0.27774369   
     19700   1.441531      -4.8504977      2.157972      -2.6925257      0.48128342     90             187            19.701126     -18.958729      0.74239674   
     19750   1.4237086     -4.8241689      2.1312917     -2.6928772      0.48128342     90             187            19.701126     -18.958729      0.74239674   
     19800   1.5673027     -4.9274164      2.3462522     -2.5811642      0.48404255     91             188           -38.459348      37.2442       -1.2151481    
     19850   1.5460885     -4.8972992      2.3144944     -2.5828048      0.48404255     91             188           -38.459348      37.2442       -1.2151481    
     19900   1.5109468     -4.8752372      2.2618874     -2.6133498      0.48677249     92             189            26.089585     -25.828273      0.26131189   
     19950   1.4667392     -4.8087155      2.1957086     -2.6130069      0.48677249     92             189            26.089585     -25.828273      0.26131189   
     20000   1.6713554     -4.8752372      2.5020191     -2.3732181      0.48421053     92             190            8.6204647     -7.4684645      1.1520001    
     20050   1.6895447     -4.8808597      2.5292485     -2.3516112      0.48421053     92             190            8.6204647     -7.4684645      1.1520001    
     20100   1.5577257     -4.8752372      2.3319153     -2.5433219      0.48167539     92             191            72.612136     -61.41719       11.194946    
     20150   1.5489974     -4.8409932      2.3188491     -2.5221441      0.48167539     92             191            72.612136     -61.41719       11.194946    
     20200   1.5138376     -4.8752372      2.2662149     -2.6090223      0.47916667     92             192            14.960404     -3.2137484      11.746656    
     20250   1.4474919     -4.7719814      2.1668954     -2.605086       0.47916667     92             192            14.960404     -3.2137484      11.746656    
     20300   1.580313      -4.9318463      2.3657286     -2.5661177      0.48186528     93             193           -28.304558      29.700382      1.3958234    
     20350   1.4647235     -4.753912       2.192691      -2.561221       0.48186528     93             193           -28.304558      29.700382      1.3958234    
     20400   1.4585402     -4.9312589      2.1834347     -2.7478242      0.48453608     94             194            0.29371321     0.73355824     1.0272714    
     20450   1.4842981     -4.9726628      2.2219942     -2.7506687      0.48453608     94             194            0.29371321     0.73355824     1.0272714    
     20500   1.4029035     -4.9008447      2.1001465     -2.8006982      0.48717949     95             195            15.207097     -16.104116     -0.89701937   
     20550   1.3936608     -4.8865093      2.0863102     -2.8001991      0.48717949     95             195            15.207097     -16.104116     -0.89701937   
     20600   1.4744471     -4.9450764      2.2072473     -2.7378291      0.48979592     96             196           -22.115872      20.775028     -1.340844     
     20650   1.3836976     -4.8051386      2.0713953     -2.7337433      0.48979592     96             196           -22.115872      20.775028     -1.340844     
     20700   1.5082092     -4.9450764      2.2577892     -2.6872872      0.48730964     96             197            48.738623     -46.953892      1.7847315    
     20750   1.5326585     -4.9681911      2.2943897     -2.6738013      0.48730964     96             197            48.738623     -46.953892      1.7847315    
     20800   1.3750332     -4.9450764      2.0584247     -2.8866517      0.48484848     96             198            4.8251202      2.4209049      7.2460251    
     20850   1.3979527     -4.9770239      2.0927352     -2.8842887      0.48484848     96             198            4.8251202      2.4209049      7.2460251    
     20900   1.4381447     -5.0132053      2.1529027     -2.8603026      0.48743719     97             199           -34.064416      33.340161     -0.72425443   
     20950   1.4116683     -4.9707303      2.1132674     -2.8574629      0.48743719     97             199           -34.064416      33.340161     -0.72425443   
     21000   1.4796799     -5.0000278      2.2150807     -2.7849471      0.49           98             200            6.5887096     -4.8127453      1.7759643    
     21050   1.4733267     -4.9895297      2.2055701     -2.7839596      0.49           98             200            6.5887096     -4.8127453      1.7759643    
     21100   1.5419943     -4.998472       2.3083655     -2.6901065      0.49253731     99             201            0.77789856    -0.95542544    -0.17752689   
     21150   1.4638628     -4.8807752      2.1914026     -2.6893726      0.49253731     99             201            0.77789856    -0.95542544    -0.17752689   
     21200   1.4795756     -4.9173964      2.2149247     -2.7024717      0.4950495      100            202            40.537826     -39.347255      1.1905713    
     21250   1.459206      -4.8883051      2.1844314     -2.7038736      0.4950495      100            202            40.537826     -39.347255      1.1905713    
     21300   1.4843497     -4.9811742      2.2220715     -2.7591027      0.49753695     101            203           -31.888894      30.488321     -1.400573     
     21350   1.4271663     -4.8969524      2.1364679     -2.7604845      0.49753695     101            203           -31.888894      30.488321     -1.400573     
     21400   1.5075182     -4.9811742      2.2567547     -2.7244194      0.49509804     101            204            44.691962     -43.842624      0.84933811   
     21450   1.4937469     -4.9578013      2.2361392     -2.7216622      0.49509804     101            204            44.691962     -43.842624      0.84933811   
     21500   1.4282335     -4.9811742      2.1380655     -2.8431087      0.49268293     101            205            41.560021     -40.225229      1.3347925    
     21550   1.4035195     -4.933549       2.1010686     -2.8324803      0.49268293     101            205            41.560021     -40.225229      1.3347925    
     21600   1.5118791     -4.9811742      2.2632831     -2.7178911      0.49029126     101            206           -17.46753       22.16154       4.6940096    
     21650   1.4393152     -4.859325       2.1546549     -2.7046701      0.49029126     101            206           -17.46753       22.16154       4.6940096    
     21700   1.5245969     -4.9811742      2.2823215     -2.6988527      0.48792271     101            207           -12.725461      19.321416      6.5959545    
     21750   1.5144235     -4.9537115      2.2670919     -2.6866195      0.48792271     101            207           -12.725461      19.321416      6.5959545    
     21800   1.4670186     -4.9811742      2.1961268     -2.7850473      0.48557692     101            208            18.699971     -13.342898      5.3570729    
     21850   1.4620103     -4.9585109      2.1886295     -2.7698815      0.48557692     101            208            18.699971     -13.342898      5.3570729    
     21900   1.4874404     -4.9811742      2.2266982     -2.7544759      0.48325359     101            209            50.95864      -44.055374      6.9032663    
     21950   1.4597063     -4.9397183      2.1851803     -2.7545379      0.48325359     101            209            50.95864      -44.055374      6.9032663    
     22000   1.5532118     -4.9064747      2.3251581     -2.5813166      0.48571429     102            210            37.34976      -37.426357     -0.076596201  
     22050   1.5435513     -4.8899516      2.3106963     -2.5792553      0.48571429     102            210            37.34976      -37.426357     -0.076596201  
     22100   1.6084443     -4.8570181      2.4078412     -2.4491769      0.48815166     103            211            24.7283       -23.689091      1.0392089    
     22150   1.5852152     -4.8236458      2.3730672     -2.4505786      0.48815166     103            211            24.7283       -23.689091      1.0392089    
     22200   1.6254122     -4.7663376      2.4332421     -2.3330955      0.49056604     104            212            45.340231     -45.577506     -0.23727429   
     22250   1.5983346     -4.7243879      2.3927068     -2.331681       0.49056604     104            212            45.340231     -45.577506     -0.23727429   
     22300   1.4927725     -4.6844247      2.2346804     -2.4497443      0.49295775     105            213            40.956456     -39.981575      0.97488083   
     22350   1.586999      -4.8275983      2.3757375     -2.4518607      0.49295775     105            213            40.956456     -39.981575      0.97488083   
     22400   1.4748406     -4.7213675      2.2078363     -2.5135312      0.4953271      106            214           -18.471416      17.546521     -0.92489477   
     22450   1.5160608     -4.7808329      2.269543      -2.5112899      0.4953271      106            214           -18.471416      17.546521     -0.92489477   
     22500   1.5069091     -4.9147131      2.2558428     -2.6588702      0.49767442     107            215           -96.672787      96.732893      0.060106379  
     22550   1.4363004     -4.8076268      2.1501416     -2.6574852      0.49767442     107            215           -96.672787      96.732893      0.060106379  
     22600   1.4216808     -4.9147131      2.1282561     -2.786457       0.49537037     107            216            4.0657189     -3.3993931      0.66632585   
     22650   1.4454963     -4.9419163      2.1639079     -2.7780084      0.49537037     107            216            4.0657189     -3.3993931      0.66632585   
     22700   1.5596979     -4.9147131      2.3348678     -2.5798453      0.49308756     107            217            34.955018     -31.620823      3.3341954    
     22750   1.527547      -4.8397247      2.2867378     -2.5529869      0.49308756     107            217            34.955018     -31.620823      3.3341954    
     22800   1.4832414     -4.9147131      2.2204124     -2.6943007      0.49082569     107            218            35.539908     -21.649703      13.890205    
     22850   1.5130819     -4.9430525      2.2650835     -2.677969       0.49082569     107            218            35.539908     -21.649703      13.890205    
     22900   1.4899431     -4.9147131      2.2304448     -2.6842683      0.48858447     107            219           -12.713888      21.495671      8.7817828    
     22950   1.4371168     -4.8228932      2.1513638     -2.6715294      0.48858447     107            219           -12.713888      21.495671      8.7817828    
     23000   1.6077155     -4.9147131      2.4067501     -2.507963       0.48636364     107            220           -11.972787      18.158804      6.1860168    
     23050   1.4799136     -4.7278744      2.2154306     -2.5124438      0.48636364     107            220           -11.972787      18.158804      6.1860168    
     23100   1.5472144     -4.8370066      2.3161799     -2.5208267      0.48868778     108            221            38.853247     -41.406919     -2.553672     
     23150   1.514561      -4.7878377      2.2672979     -2.5205398      0.48868778     108            221            38.853247     -41.406919     -2.553672     
     23200   1.4963357     -4.8740031      2.2400146     -2.6339885      0.49099099     109            222           -18.49827       18.464414     -0.033855723  
     23250   1.4886324     -4.861856       2.2284828     -2.6333732      0.49099099     109            222           -18.49827       18.464414     -0.033855723  
     23300   1.4655005     -4.8046814      2.1938542     -2.6108271      0.49327354     110            223            34.660882     -33.893789      0.76709286   
     23350   1.4616678     -4.7984405      2.1881167     -2.6103238      0.49327354     110            223            34.660882     -33.893789      0.76709286   
     23400   1.4898836     -4.9522971      2.2303557     -2.7219414      0.49553571     111            224           -73.807868      73.827282      0.019413866  
     23450   1.4678235     -4.9210506      2.1973318     -2.7237187      0.49553571     111            224           -73.807868      73.827282      0.019413866  
     23500   1.4641067     -4.8801913      2.1917677     -2.6884237      0.49777778     112            225            36.052885     -36.396017     -0.34313273   
     23550   1.4598999     -4.8740713      2.1854701     -2.6886012      0.49777778     112            225            36.052885     -36.396017     -0.34313273   
     23600   1.5421727     -4.9278739      2.3086325     -2.6192415      0.5            113            226           -23.841306      23.664818     -0.17648777   
     23650   1.5410982     -4.9268844      2.307024      -2.6198604      0.5            113            226           -23.841306      23.664818     -0.17648777   
     23700   1.5817114     -4.8682896      2.367822      -2.5004676      0.50220264     114            227            29.792164     -30.519646     -0.72748165   
     23750   1.5120589     -4.7609579      2.2635522     -2.4974057      0.50220264     114            227            29.792164     -30.519646     -0.72748165   
     23800   1.5094422     -4.8622584      2.259635      -2.6026235      0.50438596     115            228            3.0156025     -2.4241663      0.59143621   
     23850   1.5622429     -4.9423058      2.3386776     -2.6036282      0.50438596     115            228            3.0156025     -2.4241663      0.59143621   
     23900   1.5691168     -4.8295273      2.3489679     -2.4805595      0.50655022     116            229            16.365534     -16.818848     -0.45331382   
     23950   1.6102446     -4.8904236      2.4105361     -2.4798875      0.50655022     116            229            16.365534     -16.818848     -0.45331382   
     24000   1.47012       -4.8295273      2.2007697     -2.6287576      0.50434783     116            230           -29.360219      30.002498      0.64227867   
[...]
     45250   1.4387894     -4.7296947      2.1538677     -2.5758271      0.45475113     201            442           -28.320705      36.940759      8.6200539    
     45300   1.4751158     -4.8498605      2.2082483     -2.6416121      0.4537246      201            443           -14.247105      28.979867      14.732763    
     45350   1.4792132     -4.8333821      2.2143822     -2.6189999      0.4537246      201            443           -14.247105      28.979867      14.732763    
     45400   1.4866729     -4.8498605      2.2255494     -2.6243111      0.4527027      201            444            36.488349     -25.244723      11.243626    
     45450   1.4835302     -4.8254058      2.2208447     -2.6045611      0.4527027      201            444            36.488349     -25.244723      11.243626    
     45500   1.4764997     -4.8498605      2.21032       -2.6395404      0.45168539     201            445            9.4395585      0.9475799      10.387138    
     45550   1.4709534     -4.8222583      2.2020173     -2.620241       0.45168539     201            445            9.4395585      0.9475799      10.387138    
     45600   1.531259      -4.8498605      2.2922947     -2.5575657      0.45067265     201            446            11.923066     -2.4488445      9.4742211    
     45650   1.4798509     -4.7666005      2.2153368     -2.5512637      0.45067265     201            446            11.923066     -2.4488445      9.4742211    
     45700   1.365849      -4.8498605      2.0446759     -2.8051846      0.44966443     201            447            14.255042     -11.270727      2.984315     
     45750   1.4388027     -4.9461989      2.1538877     -2.7923112      0.44966443     201            447            14.255042     -11.270727      2.984315     
     45800   1.5909886     -4.8498605      2.38171       -2.4681505      0.44866071     201            448           -29.744546      36.192507      6.4479611    
     45850   1.5444423     -4.7803258      2.3120301     -2.4682957      0.44866071     201            448           -29.744546      36.192507      6.4479611    
     45900   1.5281044     -4.8969295      2.2875723     -2.6093573      0.44988864     202            449           -23.534528      23.529032     -0.0054960879 
     45950   1.4777223     -4.8227081      2.2121503     -2.6105577      0.44988864     202            449           -23.534528      23.529032     -0.0054960879 
     46000   1.4935413     -4.8057487      2.2358313     -2.5699173      0.45111111     203            450            45.590439     -45.859376     -0.26893707   
     46050   1.5166703     -4.8380807      2.2704554     -2.5676252      0.45111111     203            450            45.590439     -45.859376     -0.26893707   
     46100   1.5110397     -4.8019472      2.2620264     -2.5399208      0.45232816     204            451            1.9007314     -3.4376983     -1.5369669    
     46150   1.5332012     -4.8308931      2.2952022     -2.5356909      0.45232816     204            451            1.9007314     -3.4376983     -1.5369669    
     46200   1.4784287     -4.8019472      2.2132077     -2.5887395      0.45132743     204            452           -48.376865      49.196684      0.81981869   
     46250   1.5749513     -4.9396182      2.3577021     -2.5819161      0.45132743     204            452           -48.376865      49.196684      0.81981869   
     46300   1.4892228     -4.8019472      2.2293665     -2.5725806      0.45033113     204            453           -13.895931      19.108498      5.2125671    
     46350   1.525497      -4.8473984      2.283669      -2.5637294      0.45033113     204            453           -13.895931      19.108498      5.2125671    
     46400   1.432755      -4.8019472      2.1448342     -2.657113       0.44933921     204            454           -37.101906      40.709523      3.6076169    
     46450   1.459422      -4.8338766      2.1847548     -2.6491219      0.44933921     204            454           -37.101906      40.709523      3.6076169    
     46500   1.4403189     -4.8019472      2.1561574     -2.6457898      0.44835165     204            455           -5.8461068      9.0126654      3.1665585    
     46550   1.513243      -4.891425       2.2653248     -2.6261002      0.44835165     204            455           -5.8461068      9.0126654      3.1665585    
     46600   1.5125083     -4.8019472      2.2642249     -2.5377223      0.44736842     204            456           -29.936387      40.735963      10.799575    
     46650   1.5017759     -4.7845076      2.2481585     -2.5363491      0.44736842     204            456           -29.936387      40.735963      10.799575    
     46700   1.5848092     -4.8616922      2.3724594     -2.4892328      0.44857768     205            457           -29.87249       31.812343      1.9398524    
     46750   1.5730809     -4.8446354      2.3549022     -2.4897332      0.44857768     205            457           -29.87249       31.812343      1.9398524    
     46800   1.4401106     -4.8757206      2.1558456     -2.7198749      0.44978166     206            458           -7.0141896      7.0299709      0.01578138   
     46850   1.4942988     -4.9578015      2.2369653     -2.7208362      0.44978166     206            458           -7.0141896      7.0299709      0.01578138   
     46900   1.4454839     -4.8757206      2.1638893     -2.7118312      0.44880174     206            459           -17.699094      18.193699      0.49460552   
     46950   1.4173064     -4.8316211      2.1217076     -2.7099135      0.44880174     206            459           -17.699094      18.193699      0.49460552   
     47000   1.4587133     -4.8757206      2.1836938     -2.6920267      0.44782609     206            460           -32.777412      32.883117      0.105705     
     47050   1.3888607     -4.7777956      2.0791244     -2.6986712      0.44782609     206            460           -32.777412      32.883117      0.105705     
     47100   1.4919911     -4.9015202      2.2335107     -2.6680095      0.44902386     207            461           -12.899835      9.4825496     -3.4172857    
     47150   1.5041058     -4.9207893      2.2516463     -2.669143       0.44902386     207            461           -12.899835      9.4825496     -3.4172857    
     47200   1.4716971     -4.9426091      2.2031305     -2.7394786      0.45021645     208            462           -20.54445       20.386238     -0.158212     
     47250   1.5252034     -5.0202649      2.2832294     -2.7370354      0.45021645     208            462           -20.54445       20.386238     -0.158212     
     47300   1.4758045     -4.9522565      2.2092793     -2.7429772      0.45140389     209            463           -4.8236776      5.0944987      0.27082111   
     47350   1.5087434     -4.9987182      2.2585889     -2.7401293      0.45140389     209            463           -4.8236776      5.0944987      0.27082111   
     47400   1.5049862     -4.9165981      2.2529643     -2.6636339      0.45258621     210            464            17.829178     -18.306001     -0.4768232    
     47450   1.48569       -4.8854918      2.2240779     -2.6614139      0.45258621     210            464            17.829178     -18.306001     -0.4768232    
     47500   1.4109926     -4.9324798      2.1122559     -2.8202238      0.45376344     211            465           -7.9408207      8.7203375      0.77951683   
     47550   1.3607446     -4.8577182      2.0370346     -2.8206835      0.45376344     211            465           -7.9408207      8.7203375      0.77951683   
     47600   1.486283      -4.9324798      2.2249657     -2.707514       0.4527897      211            466            5.24304       -4.5104525      0.73258756   
     47650   1.4145094     -4.8121564      2.1175205     -2.6946359      0.4527897      211            466            5.24304       -4.5104525      0.73258756   
     47700   1.513997      -4.9324798      2.2664535     -2.6660263      0.45182013     211            467            57.343312     -50.862626      6.4806856    
     47750   1.4026165     -4.7582193      2.099717      -2.6585024      0.45182013     211            467            57.343312     -50.862626      6.4806856    
     47800   1.5178852     -4.8463745      2.2722742     -2.5741003      0.45299145     212            468            43.05261      -39.569998      3.4826119    
     47850   1.5646928     -4.9158953      2.3423451     -2.5735502      0.45299145     212            468            43.05261      -39.569998      3.4826119    
     47900   1.504183      -4.8537249      2.2517619     -2.601963       0.45415778     213            469           -3.6751812      3.9567292      0.28154801   
     47950   1.5679399     -4.9500835      2.3472061     -2.6028774      0.45415778     213            469           -3.6751812      3.9567292      0.28154801   
     48000   1.486627      -4.8398942      2.2254806     -2.6144137      0.45531915     214            470            6.9153476     -6.8040623      0.11128538   
     48050   1.4739056     -4.821085       2.2064366     -2.6146484      0.45531915     214            470            6.9153476     -6.8040623      0.11128538   
     48100   1.568548      -4.8356521      2.3481164     -2.4875357      0.45647558     215            471            2.1210805     -2.6279834     -0.50690294   
     48150   1.5658025     -4.8323687      2.3440063     -2.4883624      0.45647558     215            471            2.1210805     -2.6279834     -0.50690294   
     48200   1.5656271     -4.6821596      2.3437438     -2.3384158      0.45762712     216            472            76.746216     -76.428268      0.31794825   
     48250   1.6561524     -4.8162157      2.4792601     -2.3369556      0.45762712     216            472            76.746216     -76.428268      0.31794825   
     48300   1.4879283     -4.7235406      2.2274287     -2.4961119      0.45877378     217            473           -20.690494      20.730998      0.040504377  
     48350   1.5931285     -4.880019       2.3849134     -2.4951056      0.45877378     217            473           -20.690494      20.730998      0.040504377  
     48400   1.5426781     -4.7382818      2.3093891     -2.4288927      0.45991561     218            474           -7.3706031      8.3523984      0.98179529   
     48450   1.6134623     -4.845776       2.4153531     -2.4304229      0.45991561     218            474           -7.3706031      8.3523984      0.98179529   
     48500   1.4601275     -4.7403867      2.1858108     -2.5545758      0.46105263     219            475           -1.0524337      0.24632794    -0.80610574   
     48550   1.4452052     -4.7185416      2.1634721     -2.5550694      0.46105263     219            475           -1.0524337      0.24632794    -0.80610574   
     48600   1.451647      -4.75907        2.1731156     -2.5859544      0.46218487     220            476           -9.3416429      9.05943       -0.2822129    
     48650   1.5200121     -4.8618802      2.2754582     -2.5864221      0.46218487     220            476           -9.3416429      9.05943       -0.2822129    
     48700   1.5879731     -4.8937372      2.3771958     -2.5165414      0.46331237     221            477           -67.333621      67.890529      0.55690745   
     48750   1.5344335     -4.8143186      2.297047      -2.5172716      0.46331237     221            477           -67.333621      67.890529      0.55690745   
     48800   1.45603       -4.8670808      2.1796769     -2.6874039      0.46443515     222            478            13.328221     -14.52241      -1.1941894    
     48850   1.5003824     -4.9335352      2.2460725     -2.6874627      0.46443515     222            478            13.328221     -14.52241      -1.1941894    
     48900   1.609194      -4.8911741      2.4089634     -2.4822106      0.46555324     223            479           -12.046645      12.725451      0.67880668   
     48950   1.5499755     -4.8023688      2.3203133     -2.4820555      0.46555324     223            479           -12.046645      12.725451      0.67880668   
     49000   1.5925345     -4.7940343      2.3840241     -2.4100102      0.46666667     224            480            48.569886     -47.609723      0.96016349   
     49050   1.580971      -4.7785612      2.3667136     -2.4118475      0.46666667     224            480            48.569886     -47.609723      0.96016349   
     49100   1.5683387     -4.7651578      2.347803      -2.4173548      0.46777547     225            481            14.438261     -15.281609     -0.84334835   
     49150   1.5967432     -4.8075925      2.3903246     -2.4172679      0.46777547     225            481            14.438261     -15.281609     -0.84334835   
     49200   1.4986694     -4.9155112      2.243508      -2.6720031      0.46887967     226            482           -75.176699      75.0175       -0.1591989    
     49250   1.4846467     -4.8948258      2.2225161     -2.6723096      0.46887967     226            482           -75.176699      75.0175       -0.1591989    
     49300   1.5068295     -4.8998408      2.2557238     -2.644117       0.4699793      227            483            7.8352001     -8.2022113     -0.36701121   
     49350   1.4820588     -4.862827       2.218642      -2.6441851      0.4699793      227            483            7.8352001     -8.2022113     -0.36701121   
     49400   1.469657      -4.8164853      2.2000765     -2.6164088      0.47107438     228            484            41.677732     -41.697296     -0.019564028  
     49450   1.4890266     -4.8449721      2.2290729     -2.6158992      0.47107438     228            484            41.677732     -41.697296     -0.019564028  
     49500   1.5437878     -4.8139761      2.3110504     -2.5029257      0.47216495     229            485            1.2545867     -1.7768819     -0.5222952    
     49550   1.4983767     -4.7444654      2.2430699     -2.5013955      0.47216495     229            485            1.2545867     -1.7768819     -0.5222952    
     49600   1.5286178     -4.8181672      2.2883409     -2.5298263      0.47325103     230            486           -2.0955375      1.4606718     -0.6348657    
     49650   1.6005852     -4.925278       2.396076      -2.529202       0.47325103     230            486           -2.0955375      1.4606718     -0.6348657    
     49700   1.5465937     -4.8343639      2.3152508     -2.5191131      0.47433265     231            487           -8.0983378      8.3879817      0.28964391   
     49750   1.5404017     -4.8251217      2.3059814     -2.5191404      0.47433265     231            487           -8.0983378      8.3879817      0.28964391   
     49800   1.4640738     -4.820775       2.1917184     -2.6290566      0.47540984     232            488            6.7944219     -7.4446959     -0.65027402   
     49850   1.5564091     -4.9590883      2.3299444     -2.6291439      0.47540984     232            488            6.7944219     -7.4446959     -0.65027402   
     49900   1.5482771     -4.7671462      2.3177708     -2.4493754      0.47648262     233            489            26.814424     -26.276651      0.53777275   
     49950   1.5791055     -4.8129294      2.3639209     -2.4490084      0.47648262     233            489            26.814424     -26.276651      0.53777275   
     50000   1.5356282     -4.8417265      2.2988354     -2.542891       0.47755102     234            490           -37.290155      37.261994     -0.028161247  
     50050   1.5238074     -4.8237247      2.2811397     -2.542585       0.47755102     234            490           -37.290155      37.261994     -0.028161247  
     50100   1.3932765     -4.8244399      2.0857349     -2.738705       0.47861507     235            491            8.6432839     -9.6071984     -0.9639145    
     50150   1.4230821     -4.8675502      2.1303539     -2.7371963      0.47861507     235            491            8.6432839     -9.6071984     -0.9639145    
     50200   1.5798047     -4.8822798      2.3649677     -2.5173121      0.4796748      236            492           -28.919926      28.858237     -0.06168902   
     50250   1.5286862     -4.8058719      2.2884433     -2.5174286      0.4796748      236            492           -28.919926      28.858237     -0.06168902   
     50300   1.462551      -4.7980804      2.1894388     -2.6086416      0.48073022     237            493            42.099694     -41.819709      0.27998485   
     50350   1.5591466     -4.9426092      2.3340424     -2.6085668      0.48073022     237            493            42.099694     -41.819709      0.27998485   
     50400   1.470382      -4.7980804      2.2011619     -2.5969185      0.47975709     237            494            7.3594349     -6.4673396      0.89209539   
     50450   1.5864701     -4.9472887      2.3749458     -2.5723429      0.47975709     237            494            7.3594349     -6.4673396      0.89209539   
     50500   1.4717139     -4.7980804      2.2031558     -2.5949246      0.47878788     237            495           -13.422619      25.77854       12.355921    
     50550   1.4856606     -4.7995255      2.2240339     -2.5754916      0.47878788     237            495           -13.422619      25.77854       12.355921    
     50600   1.6143733     -4.7980804      2.4167168     -2.3813636      0.47782258     237            496           -15.608162      25.841069      10.232908    
     50650   1.5794726     -4.7166348      2.3644704     -2.3521644      0.47782258     237            496           -15.608162      25.841069      10.232908    
     50700   1.571467      -4.7980804      2.3524861     -2.4455942      0.47686117     237            497            29.582138     -17.475134      12.107003    
     50750   1.5997744     -4.8393283      2.3948623     -2.444466       0.47686117     237            497            29.582138     -17.475134      12.107003    
     50800   1.4667659     -4.8012154      2.1957485     -2.6054669      0.47791165     238            498           -1.5675074      2.1889834      0.62147608   
     50850   1.4904067     -4.8371744      2.2311388     -2.6060356      0.47791165     238            498           -1.5675074      2.1889834      0.62147608   
     50900   1.5093906     -4.816241       2.2595577     -2.5566833      0.47895792     239            499           -7.5127916      6.9316575     -0.58113411   
     50950   1.4983775     -4.7998682      2.2430711     -2.5567971      0.47895792     239            499           -7.5127916      6.9316575     -0.58113411   
     51000   1.5114933     -4.7267438      2.2627055     -2.4640383      0.48           240            500            44.748594     -43.321718      1.4268761    
Loop time of 13.5407 on 1 procs for 50000 steps with 500 atoms

Performance: 1595191.687 tau/day, 3692.573 timesteps/s, 1.846 Matom-step/s
100.0% CPU use with 1 MPI tasks x no OpenMP threads

MPI task timing breakdown:
Section |  min time  |  avg time  |  max time  |%varavg| %total
---------------------------------------------------------------
Pair    | 7.9171     | 7.9171     | 7.9171     |   0.0 | 58.47
Neigh   | 5.0263     | 5.0263     | 5.0263     |   0.0 | 37.12
Comm    | 0.39317    | 0.39317    | 0.39317    |   0.0 |  2.90
Output  | 0.0074796  | 0.0074796  | 0.0074796  |   0.0 |  0.06
Modify  | 0.14046    | 0.14046    | 0.14046    |   0.0 |  1.04
Other   |            | 0.05622    |            |       |  0.42

Nlocal:            500 ave         500 max         500 min
Histogram: 1 0 0 0 0 0 0 0 0 0
Nghost:           1787 ave        1787 max        1787 min
Histogram: 1 0 0 0 0 0 0 0 0 0
Neighs:          18981 ave       18981 max       18981 min
Histogram: 1 0 0 0 0 0 0 0 0 0

Total # of neighbors = 18981
Ave neighs/atom = 37.962
Neighbor list builds = 6795
Dangerous builds = 0
Total wall time: 0:00:13
