LAMMPS (12 Jun 2025 - Development - patch_12Jun2025-189-gad722310b1-modified)
# 3d Lennard-Jones melt with hybrid mc/md

units           lj
atom_style      atomic

lattice         fcc 0.8442
Lattice spacing in x,y,z = 1.6795962 1.6795962 1.6795962
region          box block 0 10 0 10 0 10
create_box      1 box
Created orthogonal box = (0 0 0) to (16.795962 16.795962 16.795962)
  1 by 1 by 1 MPI processor grid
create_atoms    1 box
Created 4000 atoms
  using lattice units in orthogonal box = (0 0 0) to (16.795962 16.795962 16.795962)
  create_atoms CPU = 0.001 seconds
mass            1 1.0

pair_style      lj/cut 2.5
pair_coeff      1 1 1.0 1.0 2.5

neighbor        0.3 bin
neigh_modify    every 2 delay 4 check yes
velocity        all create 3.0 321654 loop geom

fix             1 all nve
fix             2 all hmc 100 6234 1.5 resample yes

#dump           id all atom 50 dump.melt

#dump           2 all image 25 image.*.jpg type type #               axes yes 0.8 0.02 view 60 -30
#dump_modify    2 pad 3

#dump           3 all movie 25 movie.mpg type type #               axes yes 0.8 0.02 view 60 -30
#dump_modify    3 pad 3

thermo          50
thermo_style custom step temp pe ke etotal f_2 f_2[*]

run             3000
Generated 0 of 0 mixed pair_coeff terms from geometric mixing rule
Neighbor list info ...
  update: every = 2 steps, delay = 4 steps, check = yes
  max neighbors/atom: 2000, page size: 100000
  master list distance cutoff = 2.8
  ghost atom cutoff = 2.8
  binsize = 1.4, bins = 12 12 12
  1 neighbor lists, perpetual/occasional/extra = 1 0 0
  (1) pair lj/cut, perpetual
      attributes: half, newton on
      pair build: half/bin/atomonly/newton
      stencil: half/bin/3d
      bin: standard
Per MPI rank memory allocation (min/avg/max) = 5.069 | 5.069 | 5.069 Mbytes
   Step          Temp          PotEng         KinEng         TotEng          f_2           f_2[1]         f_2[2]         f_2[3]         f_2[4]         f_2[5]    
         0   1.5201033     -6.7733681      2.2795849     -4.4937831      0              0              0              0              0              0            
        50   0.78284288    -5.6761005      1.1739707     -4.5021297      0              0              0              0              0              0            
       100   1.4838741     -5.7069496      2.2252547     -3.4816949      1              1              1              4265.6738     -4298.7983     -33.124509    
       150   1.2261863     -5.3196603      1.8388196     -3.4808407      1              1              1              4265.6738     -4298.7983     -33.124509    
       200   1.4953206     -5.7069496      2.2424201     -3.4645295      0.5            1              2              1815.2421     -1809.3114      5.9307144    
       250   1.208081      -5.2661554      1.8116685     -3.4544869      0.5            1              2              1815.2421     -1809.3114      5.9307144    
       300   1.5176508     -5.7069496      2.275907      -3.4310426      0.33333333     1              3              1943.3274     -1900.0292      43.298209    
       350   1.2157377     -5.2509084      1.8231506     -3.4277578      0.33333333     1              3              1943.3274     -1900.0292      43.298209    
       400   1.4983705     -5.7069496      2.2469938     -3.4599558      0.25           1              4              1894.2119     -1880.6743      13.537568    
       450   1.21592       -5.2794057      1.823424      -3.4559817      0.25           1              4              1894.2119     -1880.6743      13.537568    
       500   1.4922284     -5.7069496      2.2377831     -3.4691665      0.2            1              5              1949.8162     -1930.7034      19.112889    
       550   1.2128022     -5.280394       1.8187485     -3.4616456      0.2            1              5              1949.8162     -1930.7034      19.112889    
       600   1.4972524     -5.7069496      2.2453172     -3.4616324      0.16666667     1              6              1932.8063     -1899.2611      33.545224    
       650   1.2180491     -5.278113       1.8266169     -3.4514962      0.16666667     1              6              1932.8063     -1899.2611      33.545224    
       700   1.4830105     -5.7069496      2.2239597     -3.4829899      0.14285714     1              7              1817.8132     -1777.3106      40.502617    
       750   1.2069197     -5.2889809      1.8099269     -3.479054       0.14285714     1              7              1817.8132     -1777.3106      40.502617    
       800   1.4728352     -5.7069496      2.2087005     -3.4982491      0.125          1              8              1796.068      -1780.2469      15.82109     
       850   1.2146852     -5.3139287      1.8215722     -3.4923564      0.125          1              8              1796.068      -1780.2469      15.82109     
       900   1.4623293     -5.7069496      2.1929455     -3.5140041      0.11111111     1              9              1841.7246     -1816.5653      25.159281    
       950   1.1941161     -5.2988588      1.7907263     -3.5081325      0.11111111     1              9              1841.7246     -1816.5653      25.159281    
      1000   1.5278579     -5.7069496      2.2912139     -3.4157357      0.1            1              10             1820.021      -1792.5519      27.46911     
      1050   1.202831      -5.2171513      1.8037955     -3.4133558      0.1            1              10             1820.021      -1792.5519      27.46911     
      1100   1.5067432     -5.7069496      2.2595498     -3.4473998      0.090909091    1              11             2043.7183     -2031.0858      12.632482    
      1150   1.2205632     -5.2686728      1.830387      -3.4382858      0.090909091    1              11             2043.7183     -2031.0858      12.632482    
      1200   1.5212528     -5.7069496      2.2813087     -3.4256409      0.083333333    1              12             1971.4213     -1929.5762      41.845102    
      1250   1.2074009     -5.22816        1.8106486     -3.4175113      0.083333333    1              12             1971.4213     -1929.5762      41.845102    
      1300   1.4898067     -5.7069496      2.2341514     -3.4727982      0.076923077    1              13             1845.323      -1809.249       36.074029    
      1350   1.2198561     -5.2989786      1.8293267     -3.4696519      0.076923077    1              13             1845.323      -1809.249       36.074029    
      1400   1.4801136     -5.7069496      2.2196153     -3.4873343      0.071428571    1              14             1898.9364     -1884.9406      13.995815    
      1450   1.2020216     -5.2830944      1.8025817     -3.4805127      0.071428571    1              14             1898.9364     -1884.9406      13.995815    
      1500   1.455759      -5.7069496      2.1830926     -3.523857       0.066666667    1              15             1818.9047     -1789.6278      29.276961    
      1550   1.1854194     -5.2956835      1.7776846     -3.5179989      0.066666667    1              15             1818.9047     -1789.6278      29.276961    
      1600   1.4911588     -5.7069496      2.236179      -3.4707706      0.0625         1              16             1878.3038     -1852.3561      25.947714    
      1650   1.2033925     -5.2716185      1.8046375     -3.466981       0.0625         1              16             1878.3038     -1852.3561      25.947714    
      1700   1.4975345     -5.7069496      2.2457402     -3.4612094      0.058823529    1              17             1941.6712     -1922.4188      19.252412    
      1750   1.2059105     -5.2612349      1.8084136     -3.4528213      0.058823529    1              17             1941.6712     -1922.4188      19.252412    
      1800   1.4944971     -5.7069496      2.2411852     -3.4657644      0.055555556    1              18             1845.7934     -1809.6245      36.168949    
      1850   1.2253286     -5.2945795      1.8375334     -3.4570461      0.055555556    1              18             1845.7934     -1809.6245      36.168949    
      1900   1.493151      -5.7069496      2.2391665     -3.4677831      0.052631579    1              19             1848.4107     -1813.3934      35.017275    
      1950   1.2046477     -5.2642823      1.8065198     -3.4577624      0.052631579    1              19             1848.4107     -1813.3934      35.017275    
      2000   1.4958723     -5.7069496      2.2432475     -3.4637021      0.05           1              20             1891.6615     -1847.6971      43.964416    
      2050   1.1949616     -5.252831       1.7919943     -3.4608367      0.05           1              20             1891.6615     -1847.6971      43.964416    
      2100   1.4867056     -5.7069496      2.2295009     -3.4774487      0.047619048    1              21             1952.3227     -1936.2836      16.039138    
      2150   1.1903269     -5.2545879      1.785044      -3.4695439      0.047619048    1              21             1952.3227     -1936.2836      16.039138    
      2200   1.4785101     -5.7069496      2.2172107     -3.4897389      0.045454545    1              22             1832.3078     -1799.6234      32.684431    
      2250   1.1900241     -5.2663069      1.7845899     -3.481717       0.045454545    1              22             1832.3078     -1799.6234      32.684431    
      2300   1.5165283     -5.7069496      2.2742237     -3.4327259      0.043478261    1              23             1792.1359     -1758.674       33.461943    
      2350   1.2297557     -5.2700846      1.8441725     -3.4259122      0.043478261    1              23             1792.1359     -1758.674       33.461943    
      2400   1.4689449     -5.7069496      2.2028665     -3.5040831      0.041666667    1              24             1904.8853     -1873.3567      31.528595    
      2450   1.1820301     -5.2699931      1.7726018     -3.4973913      0.041666667    1              24             1904.8853     -1873.3567      31.528595    
      2500   1.4938402     -5.7069496      2.2402002     -3.4667494      0.04           1              25             1742.9543     -1715.2841      27.670215    
      2550   1.2060587     -5.2700486      1.8086357     -3.4614129      0.04           1              25             1742.9543     -1715.2841      27.670215    
      2600   1.5254679     -5.7069496      2.2876298     -3.4193198      0.038461538    1              26             1856.7017     -1834.7871      21.914627    
      2650   1.221065      -5.2412319      1.8311396     -3.4100924      0.038461538    1              26             1856.7017     -1834.7871      21.914627    
      2700   1.5085975     -5.7069496      2.2623306     -3.444619       0.037037037    1              27             1916.0663     -1878.0824      37.98385     
      2750   1.2095904     -5.2503597      1.813932      -3.4364277      0.037037037    1              27             1916.0663     -1878.0824      37.98385     
      2800   1.5224721     -5.7069496      2.2831372     -3.4238124      0.035714286    1              28             1816.4743     -1782.5114      33.962901    
      2850   1.235499      -5.2693821      1.8527852     -3.4165969      0.035714286    1              28             1816.4743     -1782.5114      33.962901    
      2900   1.4871828     -5.7069496      2.2302165     -3.4767331      0.034482759    1              29             1975.2851     -1944.8467      30.43847     
      2950   1.2177159     -5.2947818      1.8261172     -3.4686647      0.034482759    1              29             1975.2851     -1944.8467      30.43847     
      3000   1.4863946     -5.7069496      2.2290345     -3.4779151      0.033333333    1              30             1965.2009     -1929.9758      35.225174    
Loop time of 6.17811 on 1 procs for 3000 steps with 4000 atoms

Performance: 209772.977 tau/day, 485.586 timesteps/s, 1.942 Matom-step/s
100.0% CPU use with 1 MPI tasks x no OpenMP threads

MPI task timing breakdown:
Section |  min time  |  avg time  |  max time  |%varavg| %total
---------------------------------------------------------------
Pair    | 3.6783     | 3.6783     | 3.6783     |   0.0 | 59.54
Neigh   | 2.3229     | 2.3229     | 2.3229     |   0.0 | 37.60
Comm    | 0.083435   | 0.083435   | 0.083435   |   0.0 |  1.35
Output  | 0.0017257  | 0.0017257  | 0.0017257  |   0.0 |  0.03
Modify  | 0.068146   | 0.068146   | 0.068146   |   0.0 |  1.10
Other   |            | 0.02354    |            |       |  0.38

Nlocal:           4000 ave        4000 max        4000 min
Histogram: 1 0 0 0 0 0 0 0 0 0
Nghost:              0 ave           0 max           0 min
Histogram: 1 0 0 0 0 0 0 0 0 0
Neighs:         150681 ave      150681 max      150681 min
Histogram: 1 0 0 0 0 0 0 0 0 0

Total # of neighbors = 150681
Ave neighs/atom = 37.67025
Neighbor list builds = 429
Dangerous builds = 0
Total wall time: 0:00:06
