LAMMPS (12 Jun 2025 - Development - patch_12Jun2025-189-gad722310b1-modified)
# fix hmc running on SPC/E Water, using rigid/ setting

units           real
boundary        p p p
atom_style      full

read_data       data.hmc.spce
Reading data file ...
  orthogonal box = (-1 -1 -1) to (1 1 1)
  1 by 2 by 2 MPI processor grid
  reading atoms ...
  3 atoms
  scanning bonds ...
  2 = max bonds/atom
  scanning angles ...
  1 = max angles/atom
  orthogonal box = (-1 -1 -1) to (1 1 1)
  1 by 2 by 2 MPI processor grid
  reading bonds ...
  2 bonds
  reading angles ...
  1 angles
Finding 1-2 1-3 1-4 neighbors ...
  special bond factors lj:    0        0        0       
  special bond factors coul:  0        0        0       
     2 = max # of 1-2 neighbors
     1 = max # of 1-3 neighbors
     1 = max # of 1-4 neighbors
     2 = max # of special neighbors
  special bonds CPU = 0.000 seconds
  read_data CPU = 0.003 seconds
replicate       4 4 4
Replication is creating a 4x4x4 = 64 times larger system...
  orthogonal box = (-1 -1 -1) to (7 7 7)
  1 by 2 by 2 MPI processor grid
  192 atoms
  128 bonds
  64 angles
Finding 1-2 1-3 1-4 neighbors ...
  special bond factors lj:    0        0        0       
  special bond factors coul:  0        0        0       
     2 = max # of 1-2 neighbors
     1 = max # of 1-3 neighbors
     1 = max # of 1-4 neighbors
     2 = max # of special neighbors
  special bonds CPU = 0.000 seconds
  replicate CPU = 0.001 seconds

mass            1 15.9994
mass            2 1.00784

neighbor        2.0 bin
neigh_modify    every 2 delay 4 check yes
#neigh_modify    every 1 delay 0 check yes

pair_style      lj/cut/coul/long 9.0
pair_modify     tail yes mix arithmetic
kspace_style    pppm 1.0e-5

pair_coeff      1 1 0.1554015 3.166
pair_coeff      2 2 0 0

bond_style      harmonic
bond_coeff      1 554.1349 1.000

angle_style     harmonic
angle_coeff     1 45.7696 109.47

timestep        1

#reset_timestep 0 time 0

thermo          50
# dump myDump all atom 50 dumps/water_v_dump*.dump

fix             1 all rigid/small molecule
Fix rigid/small initialization ...
  create bodies CPU = 0.000 seconds
  64 rigid bodies with 192 atoms
  0.95789707 = max distance from body owner to body atom
fix             2 all hmc 100 654123 300.0 rigid 1

thermo_style custom step temp pe ke etotal f_2 f_2[*]

run             5000
PPPM initialization ...
  using 12-bit tables for long-range coulomb (../kspace.cpp:345)
  G vector (1/distance) = 0.3592696
  grid = 10 10 10
  stencil order = 5
  estimated absolute RMS force accuracy = 0.001983856
  estimated relative force accuracy = 5.9743233e-06
  using double precision KISS FFT
  3d grid and FFT values/proc = 2448 250
Generated 1 of 1 mixed pair_coeff terms from arithmetic mixing rule
Neighbor list info ...
  update: every = 2 steps, delay = 4 steps, check = yes
  max neighbors/atom: 2000, page size: 100000
  master list distance cutoff = 11
  ghost atom cutoff = 11
  binsize = 5.5, bins = 2 2 2
  1 neighbor lists, perpetual/occasional/extra = 1 0 0
  (1) pair lj/cut/coul/long, perpetual
      attributes: half, newton on
      pair build: half/bin/newton
      stencil: half/bin/3d
      bin: standard
Per MPI rank memory allocation (min/avg/max) = 16.41 | 16.41 | 16.41 Mbytes
   Step          Temp          PotEng         KinEng         TotEng          f_2           f_2[1]         f_2[2]         f_2[3]         f_2[4]         f_2[5]    
         0   307.01608      30212.672      116.22489      30328.897      0              0              0              0              0              0            
        50   25265.086      20792.441      9564.4238      30356.865      0              0              0              0              0              0            
       100   650.42126      30212.672      246.22534      30458.897      0              0              1             -9822.845       9883.5004      60.65538     
ERROR on proc 0: Out of range atoms - cannot compute PPPM
For more information see https://docs.lammps.org/err0004 (../pppm.cpp:1833)
