LAMMPS (12 Jun 2025 - Development - patch_12Jun2025-212-g4bf7191833)
# 3d Lennard-Jones melt with hybrid mc/md via fix hmc

units           lj
atom_style      atomic

lattice         fcc 0.8442
Lattice spacing in x,y,z = 1.6795962 1.6795962 1.6795962
region          box block 0 5 0 5 0 5
create_box      1 box
Created orthogonal box = (0 0 0) to (8.397981 8.397981 8.397981)
  1 by 1 by 1 MPI processor grid
create_atoms    1 box
Created 500 atoms
  using lattice units in orthogonal box = (0 0 0) to (8.397981 8.397981 8.397981)
  create_atoms CPU = 0.000 seconds
mass            1 1.0

pair_style      lj/cut 2.5
pair_coeff      1 1 1.0 1.0 2.5

neighbor        0.3 bin
neigh_modify    every 2 delay 4 check yes
velocity        all create 3.0 321654 loop geom

fix             1 all nve

thermo          50
run             1000  # equilibrate a bit
Generated 0 of 0 mixed pair_coeff terms from geometric mixing rule
Neighbor list info ...
  update: every = 2 steps, delay = 4 steps, check = yes
  max neighbors/atom: 2000, page size: 100000
  master list distance cutoff = 2.8
  ghost atom cutoff = 2.8
  binsize = 1.4, bins = 6 6 6
  1 neighbor lists, perpetual/occasional/extra = 1 0 0
  (1) pair lj/cut, perpetual
      attributes: half, newton on
      pair build: half/bin/atomonly/newton
      stencil: half/bin/3d
      bin: standard
Per MPI rank memory allocation (min/avg/max) = 3.144 | 3.144 | 3.144 Mbytes
   Step          Temp          E_pair         E_mol          TotEng         Press     
         0   3             -6.7733681      0             -2.2823681     -3.7077825    
        50   1.6542532     -4.7662516      0             -2.2898346      5.7313127    
       100   1.6353666     -4.7366686      0             -2.2885248      5.856866     
       150   1.6554591     -4.7658595      0             -2.2876372      5.8777828    
       200   1.653556      -4.7620199      0             -2.2866467      5.7477385    
       250   1.6325395     -4.7316631      0             -2.2877514      5.9295202    
       300   1.5898436     -4.6660099      0             -2.286014       6.1545142    
       350   1.6881218     -4.8122255      0             -2.2851072      5.5960771    
       400   1.6411399     -4.7465497      0             -2.2897633      5.8110516    
       450   1.6904488     -4.8181142      0             -2.2875123      5.5945433    
       500   1.6318101     -4.7328756      0             -2.2900559      5.8047779    
       550   1.6866656     -4.8110436      0             -2.2861053      5.5595233    
       600   1.6697273     -4.7878837      0             -2.288302       5.6917243    
       650   1.6825496     -4.8079765      0             -2.2891997      5.504302     
       700   1.6209771     -4.714972       0             -2.2883693      5.941359     
       750   1.6254552     -4.7190048      0             -2.2856983      6.1116249    
       800   1.6071926     -4.6922082      0             -2.2862408      6.1828827    
       850   1.6365981     -4.7378492      0             -2.2878618      5.9233303    
       900   1.689755      -4.8171554      0             -2.2875922      5.5188776    
       950   1.6203063     -4.7149635      0             -2.289365       6.0618396    
      1000   1.6414426     -4.7440077      0             -2.286768       5.8340026    
Loop time of 0.293126 on 1 procs for 1000 steps with 500 atoms

Performance: 1473769.990 tau/day, 3411.505 timesteps/s, 1.706 Matom-step/s
100.0% CPU use with 1 MPI tasks x no OpenMP threads

MPI task timing breakdown:
Section |  min time  |  avg time  |  max time  |%varavg| %total
---------------------------------------------------------------
Pair    | 0.16715    | 0.16715    | 0.16715    |   0.0 | 57.02
Neigh   | 0.11301    | 0.11301    | 0.11301    |   0.0 | 38.56
Comm    | 0.0089231  | 0.0089231  | 0.0089231  |   0.0 |  3.04
Output  | 0.00014373 | 0.00014373 | 0.00014373 |   0.0 |  0.05
Modify  | 0.0026501  | 0.0026501  | 0.0026501  |   0.0 |  0.90
Other   |            | 0.001245   |            |       |  0.42

Nlocal:            500 ave         500 max         500 min
Histogram: 1 0 0 0 0 0 0 0 0 0
Nghost:           1797 ave        1797 max        1797 min
Histogram: 1 0 0 0 0 0 0 0 0 0
Neighs:          19001 ave       19001 max       19001 min
Histogram: 1 0 0 0 0 0 0 0 0 0

Total # of neighbors = 19001
Ave neighs/atom = 38.002
Neighbor list builds = 144
Dangerous builds = 1

fix             2 all hmc 100 6234 1.5 resample yes

#dump           id all atom 50 dump.melt

#dump           2 all image 25 image.*.jpg type type #               axes yes 0.8 0.02 view 60 -30
#dump_modify    2 pad 3

#dump           3 all movie 25 movie.mpg type type #               axes yes 0.8 0.02 view 60 -30
#dump_modify    3 pad 3

thermo_style    custom step temp pe ke etotal f_2 f_2[*]

timestep        0.005
run             50000
Generated 0 of 0 mixed pair_coeff terms from geometric mixing rule
Per MPI rank memory allocation (min/avg/max) = 4.088 | 4.088 | 4.088 Mbytes
   Step          Temp          PotEng         KinEng         TotEng          f_2           f_2[1]         f_2[2]         f_2[3]         f_2[4]         f_2[5]    
      1000   1.5402189     -4.7440077      2.3057076     -2.4383         0              0              0              0              0              0            
      1050   1.5667281     -4.785651       2.345392      -2.440259       0              0              0              0              0              0            
      1100   1.4889035     -4.7865043      2.2288886     -2.5576157      1              1              1             -21.24834       21.532574      0.28423391   
      1150   1.5429502     -4.8701082      2.3097964     -2.5603119      1              1              1             -21.24834       21.532574      0.28423391   
      1200   1.4807386     -4.845085       2.2166656     -2.6284194      1              2              2             -29.290334      27.780654     -1.5096803    
      1250   1.5243309     -4.9098025      2.2819234     -2.6278791      1              2              2             -29.290334      27.780654     -1.5096803    
      1300   1.5481569     -4.8818764      2.3175909     -2.5642855      1              3              3             -18.395676      19.410285      1.014609     
      1350   1.5477281     -4.8810867      2.316949      -2.5641377      1              3              3             -18.395676      19.410285      1.014609     
      1400   1.5292389     -4.8282351      2.2892706     -2.5389645      1              4              4              26.820637     -27.424486     -0.60384887   
      1450   1.5022791     -4.7881531      2.2489118     -2.5392413      1              4              4              26.820637     -27.424486     -0.60384887   
      1500   1.5713337     -4.9148607      2.3522865     -2.5625742      1              5              5             -43.312834      42.987076     -0.32575707   
      1550   1.5093288     -4.8209763      2.2594652     -2.5615111      1              5              5             -43.312834      42.987076     -0.32575707   
      1600   1.529529      -4.8655549      2.2897049     -2.57585        1              6              6              24.652944     -24.788557     -0.13561224   
      1650   1.5658261     -4.9168537      2.3440417     -2.572812       1              6              6              24.652944     -24.788557     -0.13561224   
      1700   1.4810346     -4.8655549      2.2171087     -2.6484461      0.85714286     6              7              7.4974603     -6.2411945      1.2562658    
      1750   1.5511081     -4.946784       2.3220088     -2.6247752      0.85714286     6              7              7.4974603     -6.2411945      1.2562658    
      1800   1.4929766     -4.8655549      2.234986      -2.6305688      0.75           6              8             -1.8187977      13.263296      11.444498    
      1850   1.521058      -4.8967427      2.2770238     -2.6197189      0.75           6              8             -1.8187977      13.263296      11.444498    
      1900   1.4974181     -4.8655549      2.2416349     -2.62392        0.66666667     6              9              55.779041     -50.378013      5.4010286    
      1950   1.5172392     -4.8907929      2.2713071     -2.6194858      0.66666667     6              9              55.779041     -50.378013      5.4010286    
      2000   1.5208973     -4.8655549      2.2767833     -2.5887715      0.6            6              10             5.3847912     -3.3165973      2.068194     
      2050   1.4529124     -4.7434304      2.1750098     -2.5684206      0.6            6              10             5.3847912     -3.3165973      2.068194     
      2100   1.5409943     -4.8655549      2.3068685     -2.5586864      0.54545455     6              11             12.672709     -2.0882501      10.584459    
      2150   1.4935779     -4.792368       2.2358862     -2.5564818      0.54545455     6              11             12.672709     -2.0882501      10.584459    
      2200   1.4840427     -4.8577329      2.2216119     -2.636121       0.58333333     7              12             3.9109784     -4.1218203     -0.21084193   
      2250   1.4262144     -4.7708803      2.1350429     -2.6358374      0.58333333     7              12             3.9109784     -4.1218203     -0.21084193   
      2300   1.451844      -4.8819461      2.1734105     -2.7085356      0.61538462     8              13            -12.106592      11.718413     -0.3881789    
      2350   1.4927958     -4.944294       2.2347153     -2.7095787      0.61538462     8              13            -12.106592      11.718413     -0.3881789    
      2400   1.4522053     -4.8786488      2.1739513     -2.7046975      0.64285714     9              14             1.6486475     -2.22492       -0.5762725    
      2450   1.4802424     -4.9191666      2.2159229     -2.7032438      0.64285714     9              14             1.6486475     -2.22492       -0.5762725    
      2500   1.4356922     -4.9138873      2.1492312     -2.7646562      0.66666667     10             15            -17.619265      18.240585      0.62132004   
      2550   1.4796489     -4.9825555      2.2150344     -2.7675212      0.66666667     10             15            -17.619265      18.240585      0.62132004   
      2600   1.5010234     -4.9998303      2.247032      -2.7527983      0.6875         11             16            -42.971487      42.632789     -0.3386984    
      2650   1.44241       -4.911158       2.1592878     -2.7518702      0.6875         11             16            -42.971487      42.632789     -0.3386984    
      2700   1.5225153     -4.9998303      2.2792054     -2.7206249      0.64705882     11             17             11.573291     -10.247685      1.3256052    
      2750   1.4727937     -4.9055539      2.2047722     -2.7007817      0.64705882     11             17             11.573291     -10.247685      1.3256052    
      2800   1.5500492     -4.9998303      2.3204237     -2.6794066      0.61111111     11             18             59.025463     -47.391667      11.633796    
      2850   1.4624901     -4.8528883      2.1893477     -2.6635406      0.61111111     11             18             59.025463     -47.391667      11.633796    
      2900   1.5192238     -4.9998303      2.274278      -2.7255523      0.57894737     11             19             51.661408     -44.355598      7.3058098    
      2950   1.4169885     -4.8396141      2.1212318     -2.7183823      0.57894737     11             19             51.661408     -44.355598      7.3058098    
      3000   1.5165116     -4.8396811      2.2702178     -2.5694633      0.6            12             20             80.074584     -76.978793      3.0957906    
      3050   1.539847      -4.87185        2.3051509     -2.5666991      0.6            12             20             80.074584     -76.978793      3.0957906    
      3100   1.4733697     -4.8393312      2.2056344     -2.6336968      0.61904762     13             21             0.17495558     0.22086386     0.39581944   
      3150   1.5116764     -4.8978385      2.2629795     -2.6348589      0.61904762     13             21             0.17495558     0.22086386     0.39581944   
      3200   1.4602368     -4.8174144      2.1859745     -2.6314399      0.63636364     14             22             10.958411     -10.93288       0.025531608  
      3250   1.4711438     -4.8352128      2.2023022     -2.6329105      0.63636364     14             22             10.958411     -10.93288       0.025531608  
      3300   1.4236245     -4.8022129      2.1311658     -2.6710471      0.65217391     15             23             7.6007532     -8.7305701     -1.1298169    
      3350   1.5187278     -4.9442796      2.2735354     -2.6707441      0.65217391     15             23             7.6007532     -8.7305701     -1.1298169    
      3400   1.4807236     -4.9389001      2.2166432     -2.7222569      0.66666667     16             24            -68.343588      69.497242      1.1536538    
      3450   1.4080737     -4.829173       2.1078863     -2.7212867      0.66666667     16             24            -68.343588      69.497242      1.1536538    
      3500   1.5231386     -5.0521331      2.2801385     -2.7719946      0.68           17             25            -56.616497      56.108703     -0.50779473   
      3550   1.4226425     -4.9023481      2.1296958     -2.7726523      0.68           17             25            -56.616497      56.108703     -0.50779473   
      3600   1.539531      -4.7843423      2.3046779     -2.4796643      0.69230769     18             26             133.89539     -133.7241       0.17129168   
      3650   1.5751636     -4.8376645      2.3580199     -2.4796446      0.69230769     18             26             133.89539     -133.7241       0.17129168   
      3700   1.5220151     -4.9092743      2.2784565     -2.6308178      0.7037037      19             27            -62.466021      61.598058     -0.86796349   
      3750   1.5202565     -4.9057886      2.275824      -2.6299646      0.7037037      19             27            -62.466021      61.598058     -0.86796349   
      3800   1.4875171     -4.9092743      2.2268131     -2.6824613      0.67857143     19             28            -19.304945      19.746268      0.44132264   
      3850   1.4629155     -4.8628316      2.1899845     -2.6728471      0.67857143     19             28            -19.304945      19.746268      0.44132264   
      3900   1.4718848     -4.9092743      2.2034115     -2.7058628      0.65517241     19             29            -16.796571      22.224764      5.4281934    
      3950   1.4968141     -4.9313507      2.2407307     -2.6906201      0.65517241     19             29            -16.796571      22.224764      5.4281934    
      4000   1.5481918     -4.9092743      2.3176431     -2.5916313      0.63333333     19             30             1.8967538      5.4624345      7.3591883    
      4050   1.5791147     -4.9452886      2.3639346     -2.5813539      0.63333333     19             30             1.8967538      5.4624345      7.3591883    
      4100   1.5698091     -4.9092743      2.3500042     -2.5592701      0.61290323     19             31             30.305555     -24.784524      5.521031     
      4150   1.5739431     -4.9071195      2.3561928     -2.5509267      0.61290323     19             31             30.305555     -24.784524      5.521031     
      4200   1.4840928     -4.9092743      2.2216869     -2.6875874      0.59375        19             32             20.015286     -16.516959      3.4983272    
      4250   1.5116351     -4.9297615      2.2629177     -2.6668438      0.59375        19             32             20.015286     -16.516959      3.4983272    
      4300   1.4453328     -4.9092743      2.1636631     -2.7456112      0.57575758     19             33             36.224432     -26.225648      9.9987844    
      4350   1.4792135     -4.9482987      2.2143826     -2.7339161      0.57575758     19             33             36.224432     -26.225648      9.9987844    
      4400   1.3820142     -4.9092743      2.0688753     -2.8403991      0.55882353     19             34            -15.321505      20.537628      5.216123     
      4450   1.3842179     -4.9048773      2.0721742     -2.8327031      0.55882353     19             34            -15.321505      20.537628      5.216123     
      4500   1.4050782     -4.9092743      2.1034021     -2.8058722      0.54285714     19             35            -10.290231      13.267647      2.9774155    
      4550   1.3993711     -4.9080021      2.0948586     -2.8131435      0.54285714     19             35            -10.290231      13.267647      2.9774155    
      4600   1.548636      -5.0028712      2.3183081     -2.6845631      0.55555556     20             36            -46.798445      43.715389     -3.0830552    
      4650   1.5232787     -4.9662109      2.2803483     -2.6858627      0.55555556     20             36            -46.798445      43.715389     -3.0830552    
      4700   1.566258      -4.9538904      2.3446882     -2.6092022      0.56756757     21             37             24.490388     -25.312502     -0.82211392   
      4750   1.5110473     -4.867704       2.2620378     -2.6056662      0.56756757     21             37             24.490388     -25.312502     -0.82211392   
      4800   1.6274505     -4.8675082      2.4362933     -2.4312149      0.57894737     22             38             43.191114     -42.287396      0.90371826   
      4850   1.6261845     -4.8680029      2.4343983     -2.4336046      0.57894737     22             38             43.191114     -42.287396      0.90371826   
      4900   1.5209242     -4.7990863      2.2768236     -2.5222628      0.58974359     23             39             34.21093      -34.286436     -0.07550592   
      4950   1.5894424     -4.9020052      2.3793952     -2.52261        0.58974359     23             39             34.21093      -34.286436     -0.07550592   
      5000   1.534737      -4.827566       2.2975012     -2.5300648      0.6            24             40            -14.239833      14.282171      0.042337421  
      5050   1.553348      -4.8553779      2.325362      -2.5300159      0.6            24             40            -14.239833      14.282171      0.042337421  
      5100   1.522533      -4.812049       2.2792319     -2.5328171      0.6097561      25             41             7.7585296     -7.7159673      0.042562318  
      5150   1.526207      -4.8173342      2.2847319     -2.5326024      0.6097561      25             41             7.7585296     -7.7159673      0.042562318  
      5200   1.4614857     -4.7458482      2.1878441     -2.5580041      0.61904762     26             42             33.10036      -33.358568     -0.25820727   
      5250   1.4783274     -4.773039       2.2130561     -2.5599828      0.61904762     26             42             33.10036      -33.358568     -0.25820727   
      5300   1.4940949     -4.7867652      2.23666       -2.5501051      0.62790698     27             43            -20.458478      20.264522     -0.19395557   
      5350   1.5581348     -4.8842669      2.3325278     -2.5517391      0.62790698     27             43            -20.458478      20.264522     -0.19395557   
      5400   1.4014064     -4.8164025      2.0979054     -2.718497       0.63636364     28             44            -14.81864       14.781462     -0.037178002  
      5450   1.4616799     -4.9071177      2.1881349     -2.7189828      0.63636364     28             44            -14.81864       14.781462     -0.037178002  
      5500   1.5510966     -4.8546388      2.3219916     -2.5326472      0.64444444     29             45            -19.118143      18.887197     -0.23094632   
      5550   1.5079971     -4.7893769      2.2574717     -2.5319052      0.64444444     29             45            -19.118143      18.887197     -0.23094632   
      5600   1.5067555     -4.8276945      2.2556129     -2.5720816      0.65217391     30             46             13.472109     -13.286654      0.18545572   
      5650   1.4915608     -4.8063673      2.2328665     -2.5735008      0.65217391     30             46             13.472109     -13.286654      0.18545572   
      5700   1.4707643     -4.7640764      2.2017341     -2.5623422      0.65957447     31             47             31.809072     -31.324571      0.48450066   
      5750   1.4591311     -4.7463021      2.1843192     -2.5619828      0.65957447     31             47             31.809072     -31.324571      0.48450066   
      5800   1.5317995     -4.8213345      2.2931038     -2.5282306      0.66666667     32             48            -28.629049      28.312805     -0.31624383   
      5850   1.5380171     -4.8298245      2.3024116     -2.5274129      0.66666667     32             48            -28.629049      28.312805     -0.31624383   
      5900   1.5003987     -4.850157       2.2460969     -2.6040601      0.67346939     33             49            -14.411229      14.352438     -0.05879122   
      5950   1.5348539     -4.9027866      2.2976762     -2.6051103      0.67346939     33             49            -14.411229      14.352438     -0.05879122   
      6000   1.5116609     -4.9236765      2.2629563     -2.6607202      0.68           34             50            -36.759764      36.330742     -0.42902254   
      6050   1.5140572     -4.9268814      2.2665437     -2.6603377      0.68           34             50            -36.759764      36.330742     -0.42902254   
      6100   1.4944111     -4.9282599      2.2371334     -2.6911265      0.68627451     35             51            -2.2916967      2.632365       0.34066828   
      6150   1.4941771     -4.9269892      2.2367831     -2.6902061      0.68627451     35             51            -2.2916967      2.632365       0.34066828   
      6200   1.4379869     -4.9197951      2.1526663     -2.7671287      0.69230769     36             52             4.2324053     -4.6176878     -0.38528252   
      6250   1.4202154     -4.892177       2.1260624     -2.7661146      0.69230769     36             52             4.2324053     -4.6176878     -0.38528252   
      6300   1.5802818     -4.9197951      2.3656819     -2.5541132      0.67924528     36             53             11.775894     -11.127584      0.64830956   
      6350   1.434226      -4.6884536      2.1470363     -2.5414173      0.67924528     36             53             11.775894     -11.127584      0.64830956   
      6400   1.4276        -4.9197951      2.1371173     -2.7826778      0.66666667     36             54             38.655987     -31.523272      7.1327151    
      6450   1.3747088     -4.8188808      2.057939      -2.7609418      0.66666667     36             54             38.655987     -31.523272      7.1327151    
      6500   1.4889714     -4.9197951      2.2289902     -2.6908049      0.65454545     36             55            -0.23252417     10.115876      9.8833514    
      6550   1.5186601     -4.9469707      2.2734341     -2.6735366      0.65454545     36             55            -0.23252417     10.115876      9.8833514    
      6600   1.4657484     -4.9197951      2.1942254     -2.7255697      0.64285714     36             56            -22.760973      30.153013      7.3920403    
      6650   1.461987      -4.9028921      2.1885945     -2.7142976      0.64285714     36             56            -22.760973      30.153013      7.3920403    
      6700   1.4805316     -4.9197951      2.2163558     -2.7034393      0.63157895     36             57             20.034064     -14.607168      5.4268954    
      6750   1.5343451     -4.9863751      2.2969146     -2.6894604      0.63157895     36             57             20.034064     -14.607168      5.4268954    
      6800   1.4828685     -4.9197951      2.2198541     -2.699941       0.62068966     36             58             19.868895     -12.451041      7.4178547    
      6850   1.443477      -4.850703       2.1608851     -2.6898179      0.62068966     36             58             19.868895     -12.451041      7.4178547    
      6900   1.4695599     -4.9197951      2.1999312     -2.7198639      0.61016949     36             59             11.874173     -7.9973449      3.8768279    
      6950   1.4926439     -4.9246032      2.2344879     -2.6901153      0.61016949     36             59             11.874173     -7.9973449      3.8768279    
      7000   1.407569      -4.9197951      2.1071308     -2.8126643      0.6            36             60            -2.2495933      16.864038      14.614445    
      7050   1.3851289     -4.8799772      2.0735379     -2.8064392      0.6            36             60            -2.2495933      16.864038      14.614445    
      7100   1.6032027     -4.9197951      2.3999944     -2.5198007      0.59016393     36             61            -65.52016       68.957845      3.4376859    
      7150   1.5531207     -4.828465       2.3250216     -2.5034433      0.59016393     36             61            -65.52016       68.957845      3.4376859    
      7200   1.4561842     -4.9197951      2.1799078     -2.7398873      0.58064516     36             62             67.990445     -59.939896      8.0505486    
      7250   1.4697241     -4.9268353      2.2001769     -2.7266583      0.58064516     36             62             67.990445     -59.939896      8.0505486    
      7300   1.5030381     -4.9197951      2.250048      -2.669747       0.57142857     36             63            -5.1480034      10.841456      5.6934523    
      7350   1.4920357     -4.8949573      2.2335774     -2.6613799      0.57142857     36             63            -5.1480034      10.841456      5.6934523    
      7400   1.4842009     -4.9197951      2.2218488     -2.6979463      0.5625         36             64             18.383875     -14.548141      3.8357343    
      7450   1.4713859     -4.8904073      2.2026647     -2.6877426      0.5625         36             64             18.383875     -14.548141      3.8357343    
      7500   1.4392066     -4.9197951      2.1544922     -2.7653028      0.55384615     36             65             10.272313     -4.5076602      5.7646532    
      7550   1.4757022     -4.9624767      2.2091261     -2.7533505      0.55384615     36             65             10.272313     -4.5076602      5.7646532    
      7600   1.5580152     -4.9197951      2.3323488     -2.5874463      0.54545455     36             66            -28.940575      35.788568      6.8479929    
      7650   1.5346594     -4.8790177      2.2973852     -2.5816326      0.54545455     36             66            -28.940575      35.788568      6.8479929    
      7700   1.4353097     -4.9197951      2.1486586     -2.7711364      0.53731343     36             67             53.937135     -49.966325      3.9708101    
      7750   1.4180924     -4.8783157      2.1228844     -2.7554313      0.53731343     36             67             53.937135     -49.966325      3.9708101    
      7800   1.4975831     -4.9197951      2.2418819     -2.6779132      0.52941176     36             68            -20.138243      28.231795      8.0935526    
      7850   1.4745082     -4.8809531      2.2073387     -2.6736143      0.52941176     36             68            -20.138243      28.231795      8.0935526    
      7900   1.4508944     -4.9197951      2.171989      -2.7478061      0.52173913     36             69            -7.6056389      9.3538114      1.7481725    
      7950   1.4833522     -4.9637926      2.2205782     -2.7432144      0.52173913     36             69            -7.6056389      9.3538114      1.7481725    
      8000   1.4563163     -4.9197951      2.1801055     -2.7396895      0.51428571     36             70             15.256501     -12.079232      3.177269     
      8050   1.4455913     -4.8903168      2.1640502     -2.7262666      0.51428571     36             70             15.256501     -12.079232      3.177269     
      8100   1.4545774     -4.9197951      2.1775023     -2.7422927      0.50704225     36             71             58.353716     -50.924556      7.4291594    
      8150   1.4360217     -4.8498558      2.1497244     -2.7001314      0.50704225     36             71             58.353716     -50.924556      7.4291594    
      8200   1.4658378     -4.9197951      2.1943591     -2.7254359      0.5            36             72            -11.629321      32.357837      20.728517    
      8250   1.4839852     -4.9496335      2.2215258     -2.7281077      0.5            36             72            -11.629321      32.357837      20.728517    
      8300   1.4510605     -4.9226848      2.1722376     -2.7504472      0.50684932     37             73            -1.4448769      0.8424214     -0.60245545   
      8350   1.4063671     -4.8586891      2.1053315     -2.7533576      0.50684932     37             73            -1.4448769      0.8424214     -0.60245545   
      8400   1.4471659     -4.8548153      2.1664073     -2.688408       0.51351351     38             74             33.934742     -35.235293     -1.3005505    
      8450   1.4575967     -4.8695834      2.1820222     -2.6875611      0.51351351     38             74             33.934742     -35.235293     -1.3005505    
      8500   1.4038145     -4.864313       2.1015103     -2.7628027      0.52           39             75            -4.7488284      6.0971252      1.3482968    
      8550   1.4046075     -4.8662482      2.1026974     -2.7635508      0.52           39             75            -4.7488284      6.0971252      1.3482968    
      8600   1.4902959     -4.9237209      2.2309729     -2.6927479      0.52631579     40             76            -29.703952      28.989676     -0.71427626   
      8650   1.4433866     -4.8519201      2.1607497     -2.6911704      0.52631579     40             76            -29.703952      28.989676     -0.71427626   
      8700   1.5225318     -4.9244041      2.2792301     -2.645174       0.53246753     41             77            -0.34159893    -0.030243799   -0.37184273   
      8750   1.4473637     -4.8138024      2.1667035     -2.647099       0.53246753     41             77            -0.34159893    -0.030243799   -0.37184273   
      8800   1.4162867     -4.943166       2.1201812     -2.8229848      0.53846154     42             78            -9.3809415      9.5600491      0.17910752   
      8850   1.4159679     -4.9425778      2.119704      -2.8228738      0.53846154     42             78            -9.3809415      9.5600491      0.17910752   
      8900   1.5004649     -4.9806724      2.2461959     -2.7344765      0.5443038      43             79            -18.753199      18.446706     -0.30649324   
      8950   1.4492413     -4.9036857      2.1695142     -2.7341715      0.5443038      43             79            -18.753199      18.446706     -0.30649324   
      9000   1.5948377     -4.9633205      2.3874721     -2.5758484      0.55           44             80             8.6759471     -8.0595458      0.61640125   
      9050   1.4935592     -4.8105933      2.2358581     -2.5747353      0.55           44             80             8.6759471     -8.0595458      0.61640125   
      9100   1.5175399     -4.8531584      2.2717572     -2.5814012      0.55555556     45             81             55.081029     -55.523164     -0.44213491   
      9150   1.5169115     -4.8513331      2.2708164     -2.5805167      0.55555556     45             81             55.081029     -55.523164     -0.44213491   
      9200   1.4886742     -4.8531584      2.2285452     -2.6246132      0.54878049     45             82            -8.1780235      8.8138873      0.63586386   
      9250   1.5069919     -4.8679134      2.2559668     -2.6119466      0.54878049     45             82            -8.1780235      8.8138873      0.63586386   
      9300   1.4880959     -4.8531584      2.2276795     -2.6254789      0.54216867     45             83             18.895488     -12.756463      6.1390248    
      9350   1.4660613     -4.8021751      2.1946937     -2.6074814      0.54216867     45             83             18.895488     -12.756463      6.1390248    
      9400   1.509321      -4.8531584      2.2594535     -2.5937049      0.53571429     45             84             15.398687     -5.3422409      10.056446    
      9450   1.538252      -4.8949268      2.3027632     -2.5921636      0.53571429     45             84             15.398687     -5.3422409      10.056446    
      9500   1.5643879     -4.8669177      2.3418887     -2.525029       0.54117647     46             85            -6.8796292      6.8990972      0.019467979  
      9550   1.5575248     -4.8573075      2.3316147     -2.5256929      0.54117647     46             85            -6.8796292      6.8990972      0.019467979  
      9600   1.5197436     -4.8330938      2.2750561     -2.5580377      0.54651163     47             86             16.911923     -16.898092      0.013830784  
      9650   1.5502696     -4.8781158      2.3207535     -2.5573623      0.54651163     47             86             16.911923     -16.898092      0.013830784  
      9700   1.5380186     -4.8932811      2.3024138     -2.5908673      0.55172414     48             87            -30.093612      29.394173     -0.69943948   
      9750   1.4685314     -4.7874623      2.1983916     -2.5890707      0.55172414     48             87            -30.093612      29.394173     -0.69943948   
      9800   1.5867787     -4.8650762      2.3754077     -2.4896685      0.55681818     49             88             14.102443     -13.657173      0.4452703    
      9850   1.5252765     -4.7727797      2.283339      -2.4894408      0.55681818     49             88             14.102443     -13.657173      0.4452703    
      9900   1.5551328     -4.7602921      2.3280339     -2.4322583      0.56179775     50             89             52.392018     -52.846789     -0.45477104   
      9950   1.657757      -4.9121189      2.4816622     -2.4304567      0.56179775     50             89             52.392018     -52.846789     -0.45477104   
     10000   1.4268256     -4.7602921      2.1359579     -2.6243342      0.55555556     50             90            -3.2142287      4.1729115      0.95868283   
     10050   1.4747165     -4.8088728      2.2076506     -2.6012222      0.55555556     50             90            -3.2142287      4.1729115      0.95868283   
     10100   1.5213132     -4.7602921      2.2774058     -2.4828863      0.54945055     50             91            -35.584844      46.117111      10.532266    
     10150   1.552533      -4.80067        2.3241419     -2.4765281      0.54945055     50             91            -35.584844      46.117111      10.532266    
     10200   1.4679738     -4.7602921      2.1975568     -2.5627353      0.54347826     50             92             7.7264535     -5.0549314      2.6715221    
     10250   1.573015      -4.9042363      2.3548035     -2.5494328      0.54347826     50             92             7.7264535     -5.0549314      2.6715221    
     10300   1.4345207     -4.7602921      2.1474775     -2.6128146      0.53763441     50             93            -7.7680435      15.475492      7.7074482    
     10350   1.5068675     -4.8635456      2.2557807     -2.6077649      0.53763441     50             93            -7.7680435      15.475492      7.7074482    
     10400   1.4875523     -4.7602921      2.2268658     -2.5334264      0.53191489     50             94            -66.408593      68.758794      2.3502013    
     10450   1.5770906     -4.8840512      2.3609046     -2.5231466      0.53191489     50             94            -66.408593      68.758794      2.3502013    
     10500   1.5746492     -4.7602921      2.3572499     -2.4030423      0.52631579     50             95            -12.386494      18.289116      5.9026227    
     10550   1.6005986     -4.7834444      2.3960961     -2.3873483      0.52631579     50             95            -12.386494      18.289116      5.9026227    
     10600   1.498137      -4.7602921      2.242711      -2.5175811      0.52083333     50             96            -38.344603      46.175494      7.8308914    
     10650   1.5964988     -4.8972468      2.3899587     -2.5072881      0.52083333     50             96            -38.344603      46.175494      7.8308914    
     10700   1.5849888     -4.7602921      2.3727282     -2.387564       0.51546392     50             97            -25.032326      30.388691      5.3563653    
     10750   1.6346833     -4.8293999      2.4471209     -2.382279       0.51546392     50             97            -25.032326      30.388691      5.3563653    
     10800   1.4591478     -4.7602921      2.1843442     -2.5759479      0.51020408     50             98             0.47518468     2.213769       2.6889537    
     10850   1.5157283     -4.8319366      2.2690452     -2.5628914      0.51020408     50             98             0.47518468     2.213769       2.6889537    
     10900   1.484336      -4.7602921      2.2220509     -2.5382412      0.50505051     50             99            -58.271234      65.284199      7.012965     
     10950   1.4914853     -4.7697018      2.2327534     -2.5369484      0.50505051     50             99            -58.271234      65.284199      7.012965     
     11000   1.4803416     -4.751588       2.2160713     -2.5355166      0.51           51             100            4.3520778     -5.3640164     -1.0119386    
     11050   1.5430317     -4.8420468      2.3099185     -2.5321283      0.51           51             100            4.3520778     -5.3640164     -1.0119386    
     11100   1.6251476     -4.751588       2.432846      -2.318742       0.5049505      51             101           -79.808128      81.141851      1.3337231    
     11150   1.6755013     -4.7986572      2.5082254     -2.2904318      0.5049505      51             101           -79.808128      81.141851      1.3337231    
     11200   1.5477524     -4.751588       2.3169853     -2.4346027      0.5            51             102            51.659653     -38.201278      13.458375    
     11250   1.5960601     -4.8152356      2.389302      -2.4259336      0.5            51             102            51.659653     -38.201278      13.458375    
     11300   1.4941547     -4.751588       2.2367495     -2.5148384      0.49514563     51             103           -52.893812      57.842115      4.9483036    
     11350   1.5481842     -4.8071747      2.3176317     -2.489543       0.49514563     51             103           -52.893812      57.842115      4.9483036    
     11400   1.4374155     -4.751588       2.1518111     -2.5997769      0.49038462     51             104           -36.56153       48.932856      12.371326    
     11450   1.4871392     -4.813685       2.2262474     -2.5874376      0.49038462     51             104           -36.56153       48.932856      12.371326    
     11500   1.4507943     -4.751588       2.1718391     -2.5797488      0.48571429     51             105           -33.884855      39.573589      5.6887341    
     11550   1.4925359     -4.7975926      2.2343262     -2.5632664      0.48571429     51             105           -33.884855      39.573589      5.6887341    
     11600   1.4922086     -4.751588       2.2338362     -2.5177518      0.48113208     51             106           -85.848017      93.876341      8.0283239    
     11650   1.5212486     -4.7713128      2.2773092     -2.4940036      0.48113208     51             106           -85.848017      93.876341      8.0283239    
     11700   1.5647479     -4.751588       2.3424276     -2.4091604      0.47663551     51             107           -34.742375      45.138906      10.396531    
     11750   1.5693425     -4.7351479      2.3493057     -2.3858421      0.47663551     51             107           -34.742375      45.138906      10.396531    
     11800   1.5072919     -4.751588       2.256416      -2.495172       0.47222222     51             108           -14.319604      26.431946      12.112342    
     11850   1.5599464     -4.8077358      2.3352398     -2.472496       0.47222222     51             108           -14.319604      26.431946      12.112342    
     11900   1.4309777     -4.751588       2.1421736     -2.6094144      0.46788991     51             109           -61.227801      73.393195      12.165394    
     11950   1.4632598     -4.7729826      2.1904999     -2.5824827      0.46788991     51             109           -61.227801      73.393195      12.165394    
     12000   1.5205369     -4.751588       2.2762438     -2.4753442      0.46363636     51             110           -54.662927      68.404623      13.741696    
     12050   1.6163432     -4.864038       2.4196658     -2.4443721      0.46363636     51             110           -54.662927      68.404623      13.741696    
     12100   1.5029432     -4.751588       2.249906      -2.501682       0.45945946     51             111           -0.26518125     16.253745      15.988564    
     12150   1.6487021     -4.9702587      2.468107      -2.5021518      0.45945946     51             111           -0.26518125     16.253745      15.988564    
     12200   1.5382925     -4.7447171      2.3028238     -2.4418933      0.46428571     52             112            3.4354213     -3.1507182      0.28470312   
     12250   1.6044394     -4.8438647      2.4018458     -2.4420189      0.46428571     52             112            3.4354213     -3.1507182      0.28470312   
     12300   1.4106844     -4.8235454      2.1117945     -2.7117509      0.46902655     53             113           -39.414126      40.117621      0.70349474   
     12350   1.4660193     -4.9088188      2.1946308     -2.714188       0.46902655     53             113           -39.414126      40.117621      0.70349474   
     12400   1.554305      -4.8176831      2.3267946     -2.4908885      0.47368421     54             114            2.9311358     -3.4003254     -0.46918951   
     12450   1.5123167     -4.7550856      2.2639381     -2.4911475      0.47368421     54             114            2.9311358     -3.4003254     -0.46918951   
     12500   1.4494842     -4.8304099      2.1698779     -2.660532       0.47826087     55             115           -6.3633702      5.9849263     -0.37844388   
     12550   1.5388204     -4.9643172      2.3036141     -2.6607031      0.47826087     55             115           -6.3633702      5.9849263     -0.37844388   
     12600   1.4902382     -4.9273656      2.2308866     -2.6964789      0.48275862     56             116           -48.477855      48.549345      0.071490017  
     12650   1.4595384     -4.8826018      2.184929      -2.6976728      0.48275862     56             116           -48.477855      48.549345      0.071490017  
     12700   1.4477883     -4.8219312      2.167339      -2.6545922      0.48717949     57             117            52.717168     -53.320097     -0.60292913   
     12750   1.4682124     -4.8506203      2.1979139     -2.6527064      0.48717949     57             117            52.717168     -53.320097     -0.60292913   
     12800   1.426663      -4.8219312      2.1357145     -2.6862167      0.48305085     57             118           -44.062374      44.573008      0.51063367   
     12850   1.4909654     -4.913022       2.2319751     -2.6810469      0.48305085     57             118           -44.062374      44.573008      0.51063367   
     12900   1.5162186     -4.8219312      2.2697793     -2.5521519      0.4789916      57             119           -76.139368      77.987607      1.8482392    
     12950   1.5194188     -4.8142918      2.2745699     -2.539722       0.4789916      57             119           -76.139368      77.987607      1.8482392    
     13000   1.4713129     -4.8219312      2.2025554     -2.6193759      0.475          57             120            3.4586779      2.9616049      6.4202828    
     13050   1.5054334     -4.8621172      2.2536338     -2.6084834      0.475          57             120            3.4586779      2.9616049      6.4202828    
     13100   1.4128159     -4.8219312      2.1149853     -2.7069459      0.47107438     57             121           -61.218153      66.373498      5.1553445    
     13150   1.4859078     -4.9226931      2.224404      -2.6982891      0.47107438     57             121           -61.218153      66.373498      5.1553445    
     13200   1.4581513     -4.8219312      2.1828525     -2.6390787      0.46721311     57             122           -26.781623      31.561458      4.7798357    
     13250   1.5190052     -4.8880032      2.2739508     -2.6140524      0.46721311     57             122           -26.781623      31.561458      4.7798357    
     13300   1.4805939     -4.8219312      2.2164491     -2.6054821      0.46341463     57             123           -13.288995      24.211172      10.922177    
     13350   1.5631874     -4.9267785      2.3400915     -2.586687       0.46341463     57             123           -13.288995      24.211172      10.922177    
     13400   1.4375704     -4.8219312      2.1520428     -2.6698884      0.45967742     57             124           -33.383635      42.698543      9.314908     
     13450   1.4801938     -4.886214       2.2158501     -2.670364       0.45967742     57             124           -33.383635      42.698543      9.314908     
     13500   1.3917544     -4.8874767      2.0834563     -2.8040204      0.464          58             125           -32.772757      32.207481     -0.56527616   
     13550   1.4381435     -4.9560098      2.1529008     -2.803109       0.464          58             125           -32.772757      32.207481     -0.56527616   
     13600   1.4758989     -4.9862423      2.2094207     -2.7768216      0.46825397     59             126           -49.382793      49.248816     -0.13397711   
     13650   1.4050916     -4.8799263      2.1034221     -2.7765042      0.46825397     59             126           -49.382793      49.248816     -0.13397711   
     13700   1.5156296     -4.9862423      2.2688976     -2.7173448      0.46456693     59             127            29.665203     -28.992906      0.67229656   
     13750   1.4912498     -4.9433869      2.232401      -2.7109859      0.46456693     59             127            29.665203     -28.992906      0.67229656   
     13800   1.4662125     -4.9862423      2.1949202     -2.7913222      0.4609375      59             128            45.906072     -43.665911      2.2401614    
     13850   1.4418649     -4.9289501      2.1584717     -2.7704784      0.4609375      59             128            45.906072     -43.665911      2.2401614    
     13900   1.415568      -4.9862423      2.1191052     -2.8671371      0.45736434     59             129           -2.9795517      12.352687      9.3731357    
     13950   1.3689841     -4.9009342      2.0493691     -2.8515651      0.45736434     59             129           -2.9795517      12.352687      9.3731357    
     14000   1.5020034     -4.9862423      2.2484992     -2.7377432      0.45384615     59             130            20.014549     -13.413241      6.6013078    
     14050   1.4915386     -4.9653568      2.2328332     -2.7325236      0.45384615     59             130            20.014549     -13.413241      6.6013078    
     14100   1.5385615     -4.9694995      2.3032266     -2.6662729      0.45801527     60             131            8.3714095     -6.3024994      2.0689101    
     14150   1.4506187     -4.835585       2.1715762     -2.6640088      0.45801527     60             131            8.3714095     -6.3024994      2.0689101    
     14200   1.4899319     -4.9694995      2.230428      -2.7390715      0.45454545     60             132            37.749695     -36.996329      0.75336637   
     14250   1.4579874     -4.9153982      2.1826072     -2.732791       0.45454545     60             132            37.749695     -36.996329      0.75336637   
     14300   1.4971877     -4.9694995      2.24129       -2.7282095      0.45112782     60             133            103.89267     -100.18499      3.7076807    
     14350   1.4546206     -4.8980529      2.177567      -2.7204858      0.45112782     60             133            103.89267     -100.18499      3.7076807    
     14400   1.5032684     -4.9694995      2.2503927     -2.7191068      0.44776119     60             134            45.048776     -40.272142      4.7766336    
     14450   1.4813122     -4.9069081      2.2175244     -2.6893838      0.44776119     60             134            45.048776     -40.272142      4.7766336    
     14500   1.524667      -4.9694995      2.2824265     -2.687073       0.44444444     60             135            31.282092     -15.460092      15.822       
     14550   1.5090063     -4.9371917      2.2589825     -2.6782092      0.44444444     60             135            31.282092     -15.460092      15.822       
     14600   1.4815664     -4.9694995      2.2179048     -2.7515947      0.44117647     60             136            56.575201     -50.697986      5.8772149    
     14650   1.4524491     -4.9122234      2.1743162     -2.7379071      0.44117647     60             136            56.575201     -50.697986      5.8772149    
     14700   1.5669483     -4.9694995      2.3457216     -2.6237779      0.4379562      60             137           -32.950382      39.793667      6.8432844    
     14750   1.5028893     -4.8691379      2.2498253     -2.6193126      0.4379562      60             137           -32.950382      39.793667      6.8432844    
     14800   1.4335342     -4.9694995      2.1460008     -2.8234988      0.43478261     60             138            49.459516     -47.14533       2.3141854    
     14850   1.4185835     -4.9320766      2.1236195     -2.8084571      0.43478261     60             138            49.459516     -47.14533       2.3141854    
     14900   1.4794425     -4.9694995      2.2147254     -2.7547741      0.43165468     60             139            22.188885     -16.041519      6.1473656    
     14950   1.4840127     -4.9508133      2.221567      -2.7292463      0.43165468     60             139            22.188885     -16.041519      6.1473656    
     15000   1.5010587     -4.9694995      2.2470849     -2.7224146      0.42857143     60             140            43.119394     -28.615197      14.504197    
     15050   1.4221289     -4.8459438      2.1289269     -2.7170169      0.42857143     60             140            43.119394     -28.615197      14.504197    
     15100   1.5768711     -4.9694995      2.360576      -2.6089235      0.42553191     60             141            18.650163     -16.2589        2.391263     
     15150   1.4711683     -4.8054655      2.2023389     -2.6031266      0.42553191     60             141            18.650163     -16.2589        2.391263     
     15200   1.4986525     -4.9694995      2.2434829     -2.7260166      0.42253521     60             142            11.076667     -8.9991783      2.0774885    
     15250   1.4197573     -4.8442693      2.1253766     -2.7188927      0.42253521     60             142            11.076667     -8.9991783      2.0774885    
     15300   1.4461514     -4.9694995      2.1648887     -2.8046108      0.41958042     60             143            18.070819     -14.672995      3.3978246    
     15350   1.422659      -4.9112351      2.1297205     -2.7815146      0.41958042     60             143            18.070819     -14.672995      3.3978246    
     15400   1.4223635     -4.9694995      2.1292782     -2.8402213      0.41666667     60             144            20.598493     -9.4269601      11.171533    
     15450   1.4043348     -4.920472       2.1022891     -2.8181829      0.41666667     60             144            20.598493     -9.4269601      11.171533    
     15500   1.4550049     -4.9694995      2.1781423     -2.7913572      0.4137931      60             145            36.37046      -25.283169      11.087291    
     15550   1.4121344     -4.8934888      2.1139653     -2.7795235      0.4137931      60             145            36.37046      -25.283169      11.087291    
     15600   1.4745657     -4.9694995      2.2074248     -2.7620747      0.4109589      60             146            28.694527     -24.05574       4.6387867    
     15650   1.4553285     -4.9279126      2.1786267     -2.7492858      0.4109589      60             146            28.694527     -24.05574       4.6387867    
     15700   1.6132496     -4.9694995      2.4150347     -2.5544648      0.40816327     60             147            36.783781     -29.413127      7.3706532    
     15750   1.5616992     -4.8888393      2.3378637     -2.5509756      0.40816327     60             147            36.783781     -29.413127      7.3706532    
     15800   1.5707234     -4.9694995      2.3513729     -2.6181266      0.40540541     60             148            17.370102     -15.428897      1.9412045    
     15850   1.5001255     -4.8479919      2.2456879     -2.6023039      0.40540541     60             148            17.370102     -15.428897      1.9412045    
     15900   1.560949      -4.9694995      2.3367406     -2.6327589      0.40268456     60             149            29.493974     -23.401708      6.0922656    
     15950   1.4620401     -4.823105       2.188674      -2.634431       0.40268456     60             149            29.493974     -23.401708      6.0922656    
     16000   1.39364       -4.9406232      2.0862791     -2.8543441      0.40666667     61             150            14.438171     -15.134301     -0.69612956   
     16050   1.3707188     -4.9082532      2.051966      -2.8562872      0.40666667     61             150            14.438171     -15.134301     -0.69612956   
     16100   1.4721881     -4.9460258      2.2038656     -2.7421602      0.41059603     62             151           -2.7012958      2.0605989     -0.64069691   
     16150   1.426911      -4.8798256      2.1360858     -2.7437398      0.41059603     62             151           -2.7012958      2.0605989     -0.64069691   
     16200   1.4769699     -4.9440656      2.2110239     -2.7330418      0.41447368     63             152            0.98006392    -1.6671191     -0.68705519   
     16250   1.4342976     -4.8784892      2.1471435     -2.7313457      0.41447368     63             152            0.98006392    -1.6671191     -0.68705519   
     16300   1.506874      -4.9440656      2.2557903     -2.6882753      0.41176471     63             153            0.17433846     0.4018274      0.57616586   
     16350   1.5001821     -4.9143543      2.2457726     -2.6685816      0.41176471     63             153            0.17433846     0.4018274      0.57616586   
     16400   1.4503028     -4.9440656      2.1711033     -2.7729623      0.40909091     63             154            36.063835     -25.859984      10.203852    
     16450   1.4588777     -4.9509228      2.1839399     -2.766983       0.40909091     63             154            36.063835     -25.859984      10.203852    
     16500   1.5269641     -4.9440656      2.2858653     -2.6582003      0.40645161     63             155           -11.275553      14.448399      3.1728456    
     16550   1.456901      -4.8115904      2.1809807     -2.6306096      0.40645161     63             155           -11.275553      14.448399      3.1728456    
     16600   1.4506095     -4.9440656      2.1715624     -2.7725033      0.40384615     63             156            47.879906     -33.766558      14.113348    
     16650   1.4483595     -4.9244466      2.1681942     -2.7562524      0.40384615     63             156            47.879906     -33.766558      14.113348    
     16700   1.5295049     -4.9440656      2.2896688     -2.6543968      0.40127389     63             157            17.322294     -8.9259598      8.3963345    
     16750   1.5211795     -4.9255186      2.2772057     -2.6483129      0.40127389     63             157            17.322294     -8.9259598      8.3963345    
     16800   1.4681515     -4.9440656      2.1978228     -2.7462428      0.39873418     63             158            48.624451     -45.457218      3.1672326    
     16850   1.4582414     -4.9245757      2.1829873     -2.7415884      0.39873418     63             158            48.624451     -45.457218      3.1672326    
     16900   1.5373661     -4.8845371      2.3014371     -2.5831         0.40251572     64             159            29.764272     -26.224893      3.5393792    
     16950   1.5559046     -4.9128568      2.3291891     -2.5836677      0.40251572     64             159            29.764272     -26.224893      3.5393792    
     17000   1.4065677     -4.844027       2.1056319     -2.7383951      0.40625        65             160            20.255032     -20.709477     -0.45444539   
     17050   1.4845374     -4.9632694      2.2223525     -2.7409169      0.40625        65             160            20.255032     -20.709477     -0.45444539   
     17100   1.5060252     -4.9638518      2.2545197     -2.709332       0.40993789     66             161           -59.912368      59.427708     -0.48465923   
     17150   1.4794787     -4.9248301      2.2147795     -2.7100505      0.40993789     66             161           -59.912368      59.427708     -0.48465923   
     17200   1.4842187     -4.9630219      2.2218755     -2.7411465      0.41358025     67             162            0.41490824    -0.75342027    -0.33851202   
     17250   1.4871343     -4.9674205      2.2262401     -2.7411804      0.41358025     67             162            0.41490824    -0.75342027    -0.33851202   
     17300   1.5577092     -4.9760181      2.3318907     -2.6441274      0.41717791     68             163           -6.4980874      7.0112786      0.51319116   
     17350   1.5192204     -4.9183251      2.2742729     -2.6440523      0.41717791     68             163           -6.4980874      7.0112786      0.51319116   
     17400   1.5516925     -4.9243481      2.3228836     -2.6014645      0.42073171     69             164            25.835002     -25.869987     -0.034984832  
     17450   1.4939136     -4.8378514      2.2363887     -2.6014627      0.42073171     69             164            25.835002     -25.869987     -0.034984832  
     17500   1.4787806     -4.7681939      2.2137346     -2.5544593      0.42424242     70             165            78.077092     -78.410514     -0.33342191   
     17550   1.5531151     -4.8793065      2.3250133     -2.5542932      0.42424242     70             165            78.077092     -78.410514     -0.33342191   
     17600   1.4823786     -4.7681939      2.2191208     -2.5490732      0.42168675     70             166           -98.548267      99.017693      0.46942643   
     17650   1.5244296     -4.8281537      2.2820712     -2.5460825      0.42168675     70             166           -98.548267      99.017693      0.46942643   
     17700   1.4938897     -4.7681939      2.2363529     -2.531841       0.41916168     70             167           -2.3700915      3.7850347      1.4149431    
     17750   1.5062689     -4.7713386      2.2548846     -2.516454       0.41916168     70             167           -2.3700915      3.7850347      1.4149431    
     17800   1.4788569     -4.7681939      2.2138488     -2.5543451      0.41666667     70             168            16.41934      -8.5014811      7.9178593    
     17850   1.5040238     -4.7830564      2.2515236     -2.5315328      0.41666667     70             168            16.41934      -8.5014811      7.9178593    
     17900   1.5085881     -4.7681939      2.2583564     -2.5098375      0.41420118     70             169           -89.908063      100.91581      11.007746    
     17950   1.5303417     -4.7814938      2.2909215     -2.4905723      0.41420118     70             169           -89.908063      100.91581      11.007746    
     18000   1.5044873     -4.7681939      2.2522175     -2.5159764      0.41176471     70             170           -27.401651      36.086113      8.6844618    
     18050   1.5912508     -4.8728522      2.3821025     -2.4907497      0.41176471     70             170           -27.401651      36.086113      8.6844618    
     18100   1.461833      -4.7681939      2.1883641     -2.5798299      0.40935673     70             171           -29.357421      41.825204      12.467783    
     18150   1.5430492     -4.8716084      2.3099446     -2.5616638      0.40935673     70             171           -29.357421      41.825204      12.467783    
     18200   1.4743677     -4.7681939      2.2071284     -2.5610655      0.40697674     70             172           -8.2741034      17.658956      9.3848524    
     18250   1.527429      -4.8491484      2.2865612     -2.5625872      0.40697674     70             172           -8.2741034      17.658956      9.3848524    
     18300   1.4753187     -4.8749502      2.2085522     -2.6663981      0.41040462     71             173           -53.378145      52.789729     -0.58841582   
     18350   1.4912042     -4.9001317      2.2323326     -2.6677991      0.41040462     71             173           -53.378145      52.789729     -0.58841582   
     18400   1.4414737     -4.9677842      2.1578861     -2.8098981      0.4137931      72             174           -46.416997      45.536177     -0.88082075   
     18450   1.4238149     -4.940098       2.131451      -2.808647       0.4137931      72             174           -46.416997      45.536177     -0.88082075   
     18500   1.5381458     -4.9677842      2.3026042     -2.66518        0.41142857     72             175            25.297783     -24.704716      0.59306653   
     18550   1.4936491     -4.8910881      2.2359927     -2.6550954      0.41142857     72             175            25.297783     -24.704716      0.59306653   
     18600   1.4856859     -4.9677842      2.2240717     -2.7437125      0.40909091     72             176            27.386826     -22.000628      5.3861974    
     18650   1.4015077     -4.8381285      2.098057      -2.7400714      0.40909091     72             176            27.386826     -22.000628      5.3861974    
     18700   1.5239257     -4.9677842      2.2813167     -2.6864675      0.40677966     72             177            21.356647     -19.210983      2.1456637    
     18750   1.5033022     -4.9177849      2.2504433     -2.6673415      0.40677966     72             177            21.356647     -19.210983      2.1456637    
     18800   1.4423187     -4.9677842      2.1591512     -2.8086331      0.40449438     72             178            27.981603     -17.887755      10.093848    
     18850   1.3960491     -4.8766033      2.0898855     -2.7867178      0.40449438     72             178            27.981603     -17.887755      10.093848    
     18900   1.4870007     -4.9677842      2.2260401     -2.7417441      0.40223464     72             179            29.747429     -17.848664      11.898764    
     18950   1.4994031     -4.9690143      2.2446064     -2.7244079      0.40223464     72             179            29.747429     -17.848664      11.898764    
     19000   1.4599448     -4.9677842      2.1855374     -2.7822468      0.4            72             180           -13.252096      21.744482      8.4923864    
     19050   1.4425487     -4.9382988      2.1594954     -2.7788034      0.4            72             180           -13.252096      21.744482      8.4923864    
     19100   1.4368965     -4.956658       2.1510341     -2.8056239      0.40331492     73             181            5.5631192     -3.3403911      2.2227281    
     19150   1.3693594     -4.855756       2.0499311     -2.8058249      0.40331492     73             181            5.5631192     -3.3403911      2.2227281    
     19200   1.5310045     -5.0547976      2.2919137     -2.7628839      0.40659341     74             182           -49.069829      48.851019     -0.2188093    
     19250   1.470505      -4.9648189      2.201346      -2.7634729      0.40659341     74             182           -49.069829      48.851019     -0.2188093    
     19300   1.4694382     -4.9356117      2.1997491     -2.7358627      0.40983607     75             183            59.592961     -59.312612      0.28034853   
     19350   1.4586426     -4.9194551      2.183588      -2.7358671      0.40983607     75             183            59.592961     -59.312612      0.28034853   
     19400   1.4711856     -4.9068451      2.2023649     -2.7044803      0.41304348     76             184            14.383295     -15.169761     -0.78646591   
     19450   1.4952345     -4.9426661      2.2383661     -2.7043         0.41304348     76             184            14.383295     -15.169761     -0.78646591   
     19500   1.4276349     -4.9699429      2.1371694     -2.8327734      0.41621622     77             185           -31.548869      32.275125      0.72625533   
     19550   1.4416087     -4.9909507      2.1580882     -2.8328625      0.41621622     77             185           -31.548869      32.275125      0.72625533   
     19600   1.4776812     -4.9759564      2.2120887     -2.7638677      0.41935484     78             186           -3.0067615      2.2485123     -0.75824919   
     19650   1.4437702     -4.9228581      2.161324      -2.7615342      0.41935484     78             186           -3.0067615      2.2485123     -0.75824919   
     19700   1.441531      -4.9759564      2.157972      -2.8179844      0.4171123      78             187            32.914182     -32.292621      0.62156052   
     19750   1.4574402     -4.9958014      2.181788      -2.8140134      0.4171123      78             187            32.914182     -32.292621      0.62156052   
     19800   1.5673027     -4.9759564      2.3462522     -2.6297042      0.41489362     78             188            29.237556     -27.543845      1.6937116    
     19850   1.5267728     -4.8865109      2.2855789     -2.600932       0.41489362     78             188            29.237556     -27.543845      1.6937116    
     19900   1.5109468     -4.9759564      2.2618874     -2.714069       0.41269841     78             189            67.3876       -53.639315      13.748286    
     19950   1.4483577     -4.8736626      2.1681915     -2.7054711      0.41269841     78             189            67.3876       -53.639315      13.748286    
     20000   1.6713554     -4.9759564      2.5020191     -2.4739373      0.41052632     78             190           -3.8572408      8.2065265      4.3492857    
     20050   1.4944003     -4.7118229      2.2371172     -2.4747057      0.41052632     78             190           -3.8572408      8.2065265      4.3492857    
     20100   1.5577257     -4.8803318      2.3319153     -2.5484165      0.41361257     79             191            47.812282     -48.045247     -0.23296498   
     20150   1.5450106     -4.8645326      2.3128808     -2.5516518      0.41361257     79             191            47.812282     -48.045247     -0.23296498   
     20200   1.5138376     -4.8234815      2.2662149     -2.5572666      0.41666667     80             192            28.425162     -28.958389     -0.53322715   
     20250   1.473199      -4.7647355      2.205379      -2.5593565      0.41666667     80             192            28.425162     -28.958389     -0.53322715   
     20300   1.580313      -4.8094212      2.3657286     -2.4436926      0.41968912     81             193            7.0301348     -6.9937836      0.036351263  
     20350   1.5672126     -4.7887789      2.3461173     -2.4426616      0.41968912     81             193            7.0301348     -6.9937836      0.036351263  
     20400   1.4585402     -4.7942566      2.1834347     -2.6108219      0.42268041     82             194            7.5823229     -7.2384652      0.34385763   
     20450   1.4846464     -4.8320166      2.2225157     -2.6095009      0.42268041     82             194            7.5823229     -7.2384652      0.34385763   
     20500   1.4029035     -4.8815762      2.1001465     -2.7814297      0.42564103     83             195           -43.659822      42.378973     -1.2808489    
     20550   1.4482631     -4.9498656      2.1680499     -2.7818158      0.42564103     83             195           -43.659822      42.378973     -1.2808489    
     20600   1.4744471     -4.9167973      2.2072473     -2.70955        0.42857143     84             196           -17.610552      18.152586      0.54203431   
     20650   1.4707908     -4.9111769      2.2017738     -2.7094031      0.42857143     84             196           -17.610552      18.152586      0.54203431   
     20700   1.5082092     -4.9986163      2.2577892     -2.7408271      0.43147208     85             197           -40.909464      40.558454     -0.35101011   
     20750   1.4622504     -4.931194       2.1889889     -2.7422051      0.43147208     85             197           -40.909464      40.558454     -0.35101011   
     20800   1.3750332     -4.8959553      2.0584247     -2.8375305      0.43434343     86             198            51.330498     -51.463461     -0.13296263   
     20850   1.4202787     -4.9640588      2.1261572     -2.8379016      0.43434343     86             198            51.330498     -51.463461     -0.13296263   
     20900   1.4381447     -5.1291536      2.1529027     -2.9762509      0.43718593     87             199           -116.59916      116.09394     -0.50522132   
     20950   1.3653313     -5.0180185      2.0439009     -2.9741176      0.43718593     87             199           -116.59916      116.09394     -0.50522132   
     21000   1.4796799     -5.1291536      2.2150807     -2.9140728      0.435          87             200            76.442038     -75.76411       0.67792739   
     21050   1.4236494     -5.0307039      2.1312032     -2.8995007      0.435          87             200            76.442038     -75.76411       0.67792739   
     21100   1.5419943     -5.1291536      2.3083655     -2.8207881      0.43283582     87             201            96.380732     -88.894851      7.4858807    
     21150   1.4029386     -4.9113387      2.1001991     -2.8111396      0.43283582     87             201            96.380732     -88.894851      7.4858807    
     21200   1.4795756     -5.1291536      2.2149247     -2.9142289      0.43069307     87             202            90.84832      -85.903041      4.9452787    
     21250   1.3905153     -4.9816455      2.0816014     -2.9000441      0.43069307     87             202            90.84832      -85.903041      4.9452787    
     21300   1.4843497     -5.1291536      2.2220715     -2.9070821      0.42857143     87             203            53.90767      -46.163154      7.7445163    
     21350   1.3974284     -4.9878343      2.0919503     -2.895884       0.42857143     87             203            53.90767      -46.163154      7.7445163    
     21400   1.5075182     -5.1291536      2.2567547     -2.8723988      0.42647059     87             204            78.494379     -71.93426       6.5601187    
     21450   1.3773793     -4.9175739      2.0619367     -2.8556371      0.42647059     87             204            78.494379     -71.93426       6.5601187    
     21500   1.4282335     -5.1291536      2.1380655     -2.9910881      0.42439024     87             205            49.378293     -41.187678      8.1906154    
     21550   1.3215355     -4.9727595      1.9783386     -2.9944208      0.42439024     87             205            49.378293     -41.187678      8.1906154    
     21600   1.5118791     -5.0085088      2.2632831     -2.7452257      0.42718447     88             206            60.322392     -61.128449     -0.80605679   
     21650   1.398691      -4.83948        2.0938405     -2.7456395      0.42718447     88             206            60.322392     -61.128449     -0.80605679   
     21700   1.5245969     -4.9323217      2.2823215     -2.6500002      0.42995169     89             207            38.093537     -38.531115     -0.43757831   
     21750   1.4692277     -4.8506091      2.1994339     -2.6511752      0.42995169     89             207            38.093537     -38.531115     -0.43757831   
     21800   1.4670186     -4.9055497      2.1961268     -2.7094229      0.43269231     90             208            13.38599      -13.264184      0.12180647   
     21850   1.5379063     -5.0116118      2.3022457     -2.7093661      0.43269231     90             208            13.38599      -13.264184      0.12180647   
     21900   1.4874404     -4.9084624      2.2266982     -2.6817642      0.4354067      91             209           -1.4563394      1.0930893     -0.36325005   
     21950   1.4806969     -4.8986933      2.2166032     -2.6820901      0.4354067      91             209           -1.4563394      1.0930893     -0.36325005   
     22000   1.5532118     -4.8378834      2.3251581     -2.5127253      0.43809524     92             210            35.289513     -35.334312     -0.044799084  
     22050   1.60269       -4.9113527      2.399227      -2.5121257      0.43809524     92             210            35.289513     -35.334312     -0.044799084  
     22100   1.6084443     -4.9054626      2.4078412     -2.4976215      0.44075829     93             211           -33.789624      34.466451      0.67682717   
     22150   1.5732521     -4.8534026      2.3551585     -2.4982441      0.44075829     93             211           -33.789624      34.466451      0.67682717   
     22200   1.6254122     -4.7421432      2.4332421     -2.3089011      0.44339623     94             212            81.65972      -81.167278      0.49244231   
     22250   1.5782405     -4.6729241      2.3626261     -2.310298       0.44339623     94             212            81.65972      -81.167278      0.49244231   
     22300   1.4927725     -4.7256072      2.2346804     -2.4909268      0.44600939     95             213            8.2680132     -8.7983084     -0.53029529   
     22350   1.5622324     -4.8300518      2.3386619     -2.49139        0.44600939     95             213            8.2680132     -8.7983084     -0.53029529   
     22400   1.4748406     -4.7956523      2.2078363     -2.587816       0.44859813     96             214           -35.022558      34.873754     -0.14880439   
     22450   1.5000182     -4.8314085      2.2455272     -2.5858813      0.44859813     96             214           -35.022558      34.873754     -0.14880439   
     22500   1.5069091     -4.8401319      2.2558428     -2.584289       0.45116279     97             215           -22.239786      21.415472     -0.82431421   
     22550   1.5485266     -4.9021754      2.3181444     -2.5840311      0.45116279     97             215           -22.239786      21.415472     -0.82431421   
     22600   1.4216808     -4.8255181      2.1282561     -2.697262       0.4537037      98             216            7.3068808     -7.0101707      0.29671007   
     22650   1.502858      -4.9462207      2.2497784     -2.6964423      0.4537037      98             216            7.3068808     -7.0101707      0.29671007   
     22700   1.5596979     -4.8890507      2.3348678     -2.5541829      0.4562212      99             217           -31.766315      31.529093     -0.23722177   
     22750   1.5212557     -4.8316261      2.2773197     -2.5543064      0.4562212      99             217           -31.766315      31.529093     -0.23722177   
     22800   1.4832414     -4.792432       2.2204124     -2.5720196      0.4587156      100            218            48.309353     -48.324926     -0.015573496  
     22850   1.5363483     -4.873746       2.2999134     -2.5738327      0.4587156      100            218            48.309353     -48.324926     -0.015573496  
     22900   1.4899431     -4.8805693      2.2304448     -2.6501244      0.46118721     101            219           -44.068614      43.292223     -0.77639104   
     22950   1.495117      -4.8870816      2.2381902     -2.6488914      0.46118721     101            219           -44.068614      43.292223     -0.77639104   
     23000   1.6077155     -4.8718125      2.4067501     -2.4650624      0.46363636     102            220            4.3783618     -3.8596774      0.51868439   
     23050   1.6046857     -4.8675982      2.4022145     -2.4653836      0.46363636     102            220            4.3783618     -3.8596774      0.51868439   
     23100   1.5472144     -4.7860586      2.3161799     -2.4698787      0.46606335     103            221            42.876966     -42.670354      0.20661157   
     23150   1.5993696     -4.8648174      2.3942563     -2.4705611      0.46606335     103            221            42.876966     -42.670354      0.20661157   
     23200   1.4963357     -4.8084368      2.2400146     -2.5684222      0.46846847     104            222           -11.189087      10.913737     -0.27534982   
     23250   1.5563077     -4.898279       2.3297926     -2.5684864      0.46846847     104            222           -11.189087      10.913737     -0.27534982   
     23300   1.4655005     -4.8084368      2.1938542     -2.6145825      0.46636771     104            223           -20.820835      21.746589      0.92575445   
     23350   1.5353676     -4.8910727      2.2984453     -2.5926275      0.46636771     104            223           -20.820835      21.746589      0.92575445   
     23400   1.4898836     -4.8084368      2.2303557     -2.5780811      0.46428571     104            224           -4.5936748      16.288415      11.69474     
     23450   1.5725915     -4.9083251      2.3541695     -2.5541556      0.46428571     104            224           -4.5936748      16.288415      11.69474     
     23500   1.4641067     -4.8084368      2.1917677     -2.6166691      0.46222222     104            225           -32.850032      44.895882      12.04585     
     23550   1.5058802     -4.8563728      2.2543026     -2.6020701      0.46222222     104            225           -32.850032      44.895882      12.04585     
     23600   1.5421727     -4.8084368      2.3086325     -2.4998043      0.46017699     104            226           -84.989084      90.277432      5.2883481    
     23650   1.6357141     -4.9276383      2.4486639     -2.4789744      0.46017699     104            226           -84.989084      90.277432      5.2883481    
     23700   1.5817114     -4.8084368      2.367822      -2.4406148      0.45814978     104            227            21.393692     -9.9447237      11.448969    
     23750   1.5552412     -4.7549482      2.328196      -2.4267522      0.45814978     104            227            21.393692     -9.9447237      11.448969    
     23800   1.5094422     -4.8084368      2.259635      -2.5488018      0.45614035     104            228           -13.196085      21.244161      8.0480758    
     23850   1.5160993     -4.7897406      2.2696007     -2.5201399      0.45614035     104            228           -13.196085      21.244161      8.0480758    
     23900   1.5691168     -4.8084368      2.3489679     -2.4594689      0.45414847     104            229           -28.905379      43.052876      14.147497    
     23950   1.6209471     -4.8848772      2.4265578     -2.4583194      0.45414847     104            229           -28.905379      43.052876      14.147497    
     24000   1.47012       -4.8296563      2.2007697     -2.6288866      0.45652174     105            230           -10.609778      10.515881     -0.093896634  
[...]
     45250   1.5214472     -4.776548       2.2776065     -2.4989415      0.45475113     201            442           -43.665864      52.267148      8.6012839    
     45300   1.4751158     -4.7653044      2.2082483     -2.5570561      0.4537246      201            443           -18.368177      29.497385      11.129207    
     45350   1.5562931     -4.881871       2.3297708     -2.5521002      0.4537246      201            443           -18.368177      29.497385      11.129207    
     45400   1.4866729     -4.7653044      2.2255494     -2.5397551      0.4527027      201            444           -73.175296      75.748683      2.573387     
     45450   1.5295154     -4.8170867      2.2896846     -2.5274021      0.4527027      201            444           -73.175296      75.748683      2.573387     
     45500   1.4764997     -4.7653044      2.21032       -2.5549844      0.45168539     201            445           -17.719304      23.964059      6.2447552    
     45550   1.5605448     -4.8860002      2.3361356     -2.5498646      0.45168539     201            445           -17.719304      23.964059      6.2447552    
     45600   1.531259      -4.7653044      2.2922947     -2.4730097      0.45067265     201            446           -29.097561      31.029361      1.9318001    
     45650   1.5784061     -4.8262375      2.3628739     -2.4633636      0.45067265     201            446           -29.097561      31.029361      1.9318001    
     45700   1.365849      -4.7653044      2.0446759     -2.7206285      0.44966443     201            447           -13.907101      18.078397      4.1712955    
     45750   1.4729621     -4.9209091      2.2050242     -2.7158849      0.44966443     201            447           -13.907101      18.078397      4.1712955    
     45800   1.5909886     -4.7653044      2.38171       -2.3835944      0.44866071     201            448           -60.464836      63.754636      3.2898006    
     45850   1.6147261     -4.7894439      2.417245      -2.372199       0.44866071     201            448           -60.464836      63.754636      3.2898006    
     45900   1.5281044     -4.7653044      2.2875723     -2.4777321      0.44766147     201            449           -3.9313871      9.5022034      5.5708163    
     45950   1.5410966     -4.7800584      2.3070217     -2.4730367      0.44766147     201            449           -3.9313871      9.5022034      5.5708163    
     46000   1.4935413     -4.7653044      2.2358313     -2.5294731      0.44666667     201            450           -20.602438      22.071275      1.4688369    
     46050   1.572514      -4.8675635      2.3540535     -2.51351        0.44666667     201            450           -20.602438      22.071275      1.4688369    
     46100   1.5110397     -4.7653044      2.2620264     -2.5032781      0.44567627     201            451           -48.249507      57.0326        8.7830925    
     46150   1.5479182     -4.8056927      2.3172336     -2.4884592      0.44567627     201            451           -48.249507      57.0326        8.7830925    
     46200   1.4784287     -4.7653044      2.2132077     -2.5520967      0.44469027     201            452            14.443827     -8.7394511      5.7043754    
     46250   1.5229146     -4.8168089      2.2798031     -2.5370058      0.44469027     201            452            14.443827     -8.7394511      5.7043754    
     46300   1.4892228     -4.7653044      2.2293665     -2.5359379      0.44370861     201            453           -85.555624      93.014         7.4583755    
     46350   1.5382655     -4.8302759      2.3027834     -2.5274925      0.44370861     201            453           -85.555624      93.014         7.4583755    
     46400   1.432755      -4.7653044      2.1448342     -2.6204703      0.44273128     201            454           -13.935854      19.650902      5.7150477    
     46450   1.5190506     -4.8756448      2.2740188     -2.601626       0.44273128     201            454           -13.935854      19.650902      5.7150477    
     46500   1.4403189     -4.7653044      2.1561574     -2.609147       0.44175824     201            455           -44.230739      53.901819      9.67108      
     46550   1.5528342     -4.9302387      2.3245928     -2.6056459      0.44175824     201            455           -44.230739      53.901819      9.67108      
     46600   1.5125083     -4.7653044      2.2642249     -2.5010795      0.44078947     201            456           -46.126712      49.185746      3.0590337    
     46650   1.5662148     -4.8323208      2.3446235     -2.4876973      0.44078947     201            456           -46.126712      49.185746      3.0590337    
     46700   1.5848092     -4.7653044      2.3724594     -2.392845       0.43982495     201            457           -25.113011      32.596519      7.4835077    
     46750   1.5533923     -4.6965953      2.3254283     -2.371167       0.43982495     201            457           -25.113011      32.596519      7.4835077    
     46800   1.4401106     -4.7653044      2.1558456     -2.6094588      0.43886463     201            458           -37.88682       47.485541      9.5987206    
     46850   1.4754117     -4.8219588      2.2086913     -2.6132675      0.43886463     201            458           -37.88682       47.485541      9.5987206    
     46900   1.4454839     -4.8576728      2.1638893     -2.6937835      0.44008715     202            459           -46.184202      44.400225     -1.7839773    
     46950   1.5274714     -4.982524       2.2866248     -2.6958993      0.44008715     202            459           -46.184202      44.400225     -1.7839773    
     47000   1.4587133     -4.8940248      2.1836938     -2.7103309      0.44130435     203            460           -18.175971      16.40172      -1.7742514    
     47050   1.4650342     -4.9032555      2.1931562     -2.7100992      0.44130435     203            460           -18.175971      16.40172      -1.7742514    
     47100   1.4919911     -4.8940248      2.2335107     -2.660514       0.44034707     203            461           -10.005551      11.026645      1.0210943    
     47150   1.5133565     -4.9217809      2.2654946     -2.6562863      0.44034707     203            461           -10.005551      11.026645      1.0210943    
     47200   1.4716971     -4.8940248      2.2031305     -2.6908943      0.43939394     203            462            49.859733     -47.060763      2.7989703    
     47250   1.5211347     -4.9642804      2.2771386     -2.6871419      0.43939394     203            462            49.859733     -47.060763      2.7989703    
     47300   1.4758045     -4.8940248      2.2092793     -2.6847454      0.43844492     203            463            39.418165     -37.353585      2.0645795    
     47350   1.4878835     -4.9129058      2.2273616     -2.6855443      0.43844492     203            463            39.418165     -37.353585      2.0645795    
     47400   1.5049862     -4.9026793      2.2529643     -2.649715       0.43965517     204            464           -4.3272527      2.7808829     -1.5463698    
     47450   1.5551096     -4.9781966      2.3279991     -2.6501976      0.43965517     204            464           -4.3272527      2.7808829     -1.5463698    
     47500   1.4109926     -4.8702925      2.1122559     -2.7580365      0.44086022     205            465            16.193409     -16.699647     -0.50623841   
     47550   1.450451      -4.9255082      2.1713252     -2.7541831      0.44086022     205            465            16.193409     -16.699647     -0.50623841   
     47600   1.486283      -4.9073888      2.2249657     -2.6824231      0.44206009     206            466           -18.548164      19.577991      1.029827     
     47650   1.4523265     -4.8559599      2.1741328     -2.6818271      0.44206009     206            466           -18.548164      19.577991      1.029827     
     47700   1.513997      -4.9609755      2.2664535     -2.694522       0.44325482     207            467           -26.793345      26.959602      0.16625676   
     47750   1.4649479     -4.8861994      2.193027      -2.6931724      0.44325482     207            467           -26.793345      26.959602      0.16625676   
     47800   1.5178852     -4.9633441      2.2722742     -2.6910699      0.44444444     208            468           -1.1843075      0.99860877    -0.18569875   
     47850   1.4681206     -4.8898468      2.1977765     -2.6920702      0.44444444     208            468           -1.1843075      0.99860877    -0.18569875   
     47900   1.504183      -4.9054941      2.2517619     -2.6537322      0.445629       209            469            28.924988     -28.876526      0.048462018  
     47950   1.4958785     -4.8924587      2.2393301     -2.6531286      0.445629       209            469            28.924988     -28.876526      0.048462018  
     48000   1.486627      -4.9054941      2.2254806     -2.6800136      0.44468085     209            470            47.247024     -46.430795      0.81622953   
     48050   1.5255096     -4.9541725      2.2836879     -2.6704847      0.44468085     209            470            47.247024     -46.430795      0.81622953   
     48100   1.568548      -4.9054941      2.3481164     -2.5573777      0.44373673     209            471            10.799828     -5.2718412      5.5279867    
     48150   1.4995159     -4.7910406      2.2447753     -2.5462653      0.44373673     209            471            10.799828     -5.2718412      5.5279867    
     48200   1.5656271     -4.9054941      2.3437438     -2.5617503      0.44279661     209            472            9.2670338     -4.3185438      4.94849      
     48250   1.5723243     -4.9080942      2.3537694     -2.5543247      0.44279661     209            472            9.2670338     -4.3185438      4.94849      
     48300   1.4879283     -4.9054941      2.2274287     -2.6780654      0.44186047     209            473            74.001023     -70.000462      4.0005616    
     48350   1.4323889     -4.8055582      2.1442861     -2.661272       0.44186047     209            473            74.001023     -70.000462      4.0005616    
     48400   1.5426781     -4.9054941      2.3093891     -2.596105       0.44092827     209            474           -33.817909      41.917141      8.0992315    
     48450   1.4875919     -4.8229229      2.226925      -2.5959978      0.44092827     209            474           -33.817909      41.917141      8.0992315    
     48500   1.4601275     -4.9279027      2.1858108     -2.7420918      0.44210526     210            475           -11.204284      9.7309385     -1.4733454    
     48550   1.4485455     -4.9080081      2.1684727     -2.7395354      0.44210526     210            475           -11.204284      9.7309385     -1.4733454    
     48600   1.451647      -4.9279027      2.1731156     -2.7547871      0.44117647     210            476            35.236615     -33.958849      1.2777659    
     48650   1.4838119     -4.9592694      2.2212664     -2.7380031      0.44117647     210            476            35.236615     -33.958849      1.2777659    
     48700   1.5879731     -4.9279027      2.3771958     -2.5507069      0.44025157     210            477            10.769466     -1.4576023      9.3118638    
     48750   1.5087342     -4.7949848      2.2585751     -2.5364097      0.44025157     210            477            10.769466     -1.4576023      9.3118638    
     48800   1.45603       -4.9279027      2.1796769     -2.7482258      0.43933054     210            478            31.689064     -24.806125      6.882939     
     48850   1.4598844     -4.9249548      2.185447      -2.7395079      0.43933054     210            478            31.689064     -24.806125      6.882939     
     48900   1.609194      -4.9279027      2.4089634     -2.5189393      0.43841336     210            479            18.792746     -14.470996      4.3217507    
     48950   1.5690614     -4.8437069      2.3488849     -2.494822       0.43841336     210            479            18.792746     -14.470996      4.3217507    
     49000   1.5925345     -4.9279027      2.3840241     -2.5438786      0.4375         210            480            102.56705     -90.562383      12.004668    
     49050   1.5579849     -4.8693773      2.3323034     -2.5370739      0.4375         210            480            102.56705     -90.562383      12.004668    
     49100   1.5683387     -4.9279027      2.347803      -2.5800997      0.43659044     210            481            97.049423     -94.812023      2.2374004    
     49150   1.4822067     -4.7735963      2.2188635     -2.5547329      0.43659044     210            481            97.049423     -94.812023      2.2374004    
     49200   1.4986694     -4.9279027      2.243508      -2.6843946      0.43568465     210            482            40.760941     -27.643418      13.117524    
     49250   1.4899054     -4.8976097      2.2303884     -2.6672213      0.43568465     210            482            40.760941     -27.643418      13.117524    
     49300   1.5068295     -4.9279027      2.2557238     -2.6721789      0.43478261     210            483            30.219999     -23.237468      6.9825313    
     49350   1.4654156     -4.8467584      2.1937272     -2.6530312      0.43478261     210            483            30.219999     -23.237468      6.9825313    
     49400   1.469657      -4.9279027      2.2000765     -2.7278262      0.4338843      210            484            74.088879     -64.470446      9.6184324    
     49450   1.4880327     -4.9578804      2.227585      -2.7302954      0.4338843      210            484            74.088879     -64.470446      9.6184324    
     49500   1.5437878     -4.8899763      2.3110504     -2.5789259      0.43505155     211            485            18.96319      -20.635044     -1.6718539    
     49550   1.5427755     -4.8892016      2.309535      -2.5796667      0.43505155     211            485            18.96319      -20.635044     -1.6718539    
     49600   1.5286178     -4.8218876      2.2883409     -2.5335467      0.43621399     212            486            34.044347     -35.376922     -1.3325757    
     49650   1.5660024     -4.8757364      2.3443056     -2.5314308      0.43621399     212            486            34.044347     -35.376922     -1.3325757    
     49700   1.5465937     -4.8218876      2.3152508     -2.5066368      0.43531828     212            487            2.8548976     -1.3319836      1.522914     
     49750   1.6091952     -4.8963109      2.4089652     -2.4873457      0.43531828     212            487            2.8548976     -1.3319836      1.522914     
     49800   1.4640738     -4.8218876      2.1917184     -2.6301692      0.43442623     212            488            50.008827     -39.986163      10.022664    
     49850   1.5239945     -4.8817842      2.2814198     -2.6003645      0.43442623     212            488            50.008827     -39.986163      10.022664    
     49900   1.5482771     -4.8218876      2.3177708     -2.5041168      0.43353783     212            489           -4.0693362      20.144413      16.075076    
     49950   1.5820168     -4.8572839      2.3682791     -2.4890048      0.43353783     212            489           -4.0693362      20.144413      16.075076    
     50000   1.5356282     -4.8218876      2.2988354     -2.5230522      0.43265306     212            490           -13.973869      20.980825      7.0069559    
     50050   1.6381708     -4.9608709      2.4523417     -2.5085292      0.43265306     212            490           -13.973869      20.980825      7.0069559    
     50100   1.3932765     -4.8218876      2.0857349     -2.7361527      0.43177189     212            491           -15.775923      23.018464      7.2425405    
     50150   1.4338333     -4.8707157      2.1464485     -2.7242672      0.43177189     212            491           -15.775923      23.018464      7.2425405    
     50200   1.5798047     -4.8218876      2.3649677     -2.4569199      0.43089431     212            492           -40.514014      46.366023      5.8520088    
     50250   1.5612165     -4.7870925      2.3371411     -2.4499513      0.43089431     212            492           -40.514014      46.366023      5.8520088    
     50300   1.462551      -4.8510992      2.1894388     -2.6616603      0.43204868     213            493           -14.605779      18.403042      3.7972628    
     50350   1.5287693     -4.9505585      2.2885677     -2.6619909      0.43204868     213            493           -14.605779      18.403042      3.7972628    
     50400   1.470382      -4.837355       2.2011619     -2.6361931      0.43319838     214            494            6.8720695     -6.9232758     -0.051206366  
     50450   1.5411195     -4.9458304      2.3070559     -2.6387745      0.43319838     214            494            6.8720695     -6.9232758     -0.051206366  
     50500   1.4717139     -4.7872402      2.2031558     -2.5840844      0.43434343     215            495            25.057428     -25.152865     -0.095437728  
     50550   1.5292924     -4.8742437      2.2893508     -2.5848929      0.43434343     215            495            25.057428     -25.152865     -0.095437728  
     50600   1.6143733     -4.8765779      2.4167168     -2.4598611      0.43548387     216            496           -44.668871      44.890276      0.22140476   
     50650   1.5723277     -4.8141806      2.3537745     -2.4604061      0.43548387     216            496           -44.668871      44.890276      0.22140476   
     50700   1.571467      -4.8292244      2.3524861     -2.4767382      0.43661972     217            497            23.676764     -24.141809     -0.46504464   
     50750   1.5297221     -4.7676857      2.289994      -2.4776917      0.43661972     217            497            23.676764     -24.141809     -0.46504464   
     50800   1.4667659     -4.7920275      2.1957485     -2.596279       0.437751       218            498            18.598425     -18.648412     -0.049986518  
     50850   1.5509909     -4.919795       2.3218334     -2.5979615      0.437751       218            498            18.598425     -18.648412     -0.049986518  
     50900   1.5093906     -4.9247507      2.2595577     -2.665193       0.43887776     219            499           -66.361606      65.724601     -0.63700489   
     50950   1.4497645     -4.8353115      2.1702975     -2.665014       0.43887776     219            499           -66.361606      65.724601     -0.63700489   
     51000   1.5114933     -4.8984968      2.2627055     -2.6357914      0.44           220            500            13.12696      -13.879914     -0.75295413   
Loop time of 16.4735 on 1 procs for 50000 steps with 500 atoms

Performance: 1311196.486 tau/day, 3035.177 timesteps/s, 1.518 Matom-step/s
100.0% CPU use with 1 MPI tasks x no OpenMP threads

MPI task timing breakdown:
Section |  min time  |  avg time  |  max time  |%varavg| %total
---------------------------------------------------------------
Pair    | 9.5915     | 9.5915     | 9.5915     |   0.0 | 58.22
Neigh   | 6.1425     | 6.1425     | 6.1425     |   0.0 | 37.29
Comm    | 0.48311    | 0.48311    | 0.48311    |   0.0 |  2.93
Output  | 0.0093018  | 0.0093018  | 0.0093018  |   0.0 |  0.06
Modify  | 0.17844    | 0.17844    | 0.17844    |   0.0 |  1.08
Other   |            | 0.06868    |            |       |  0.42

Nlocal:            500 ave         500 max         500 min
Histogram: 1 0 0 0 0 0 0 0 0 0
Nghost:           1831 ave        1831 max        1831 min
Histogram: 1 0 0 0 0 0 0 0 0 0
Neighs:          18977 ave       18977 max       18977 min
Histogram: 1 0 0 0 0 0 0 0 0 0

Total # of neighbors = 18977
Ave neighs/atom = 37.954
Neighbor list builds = 6826
Dangerous builds = 0
Total wall time: 0:00:16
