LAMMPS (12 Jun 2025 - Development - patch_12Jun2025-212-g4bf7191833)
# 3d Lennard-Jones melt with hybrid mc/md via fix hmc

units           lj
atom_style      atomic

lattice         fcc 0.8442
Lattice spacing in x,y,z = 1.6795962 1.6795962 1.6795962
region          box block 0 5 0 5 0 5
create_box      1 box
Created orthogonal box = (0 0 0) to (8.397981 8.397981 8.397981)
  1 by 2 by 2 MPI processor grid
create_atoms    1 box
Created 500 atoms
  using lattice units in orthogonal box = (0 0 0) to (8.397981 8.397981 8.397981)
  create_atoms CPU = 0.000 seconds
mass            1 1.0

pair_style      lj/cut 2.5
pair_coeff      1 1 1.0 1.0 2.5

neighbor        0.3 bin
neigh_modify    every 2 delay 4 check yes
velocity        all create 3.0 321654 loop geom

fix             1 all nve

thermo          50
run             1000  # equilibrate a bit
Generated 0 of 0 mixed pair_coeff terms from geometric mixing rule
Neighbor list info ...
  update: every = 2 steps, delay = 4 steps, check = yes
  max neighbors/atom: 2000, page size: 100000
  master list distance cutoff = 2.8
  ghost atom cutoff = 2.8
  binsize = 1.4, bins = 6 6 6
  1 neighbor lists, perpetual/occasional/extra = 1 0 0
  (1) pair lj/cut, perpetual
      attributes: half, newton on
      pair build: half/bin/atomonly/newton
      stencil: half/bin/3d
      bin: standard
Per MPI rank memory allocation (min/avg/max) = 3.109 | 3.109 | 3.109 Mbytes
   Step          Temp          E_pair         E_mol          TotEng         Press     
         0   3             -6.7733681      0             -2.2823681     -3.7077825    
        50   1.6542532     -4.7662516      0             -2.2898346      5.7313127    
       100   1.6353666     -4.7366686      0             -2.2885248      5.856866     
       150   1.6554591     -4.7658595      0             -2.2876372      5.8777828    
       200   1.653556      -4.7620199      0             -2.2866467      5.7477385    
       250   1.6325395     -4.7316631      0             -2.2877514      5.9295202    
       300   1.5898436     -4.6660099      0             -2.286014       6.1545142    
       350   1.6881218     -4.8122255      0             -2.2851072      5.5960771    
       400   1.6411399     -4.7465497      0             -2.2897633      5.8110516    
       450   1.6904488     -4.8181142      0             -2.2875123      5.5945433    
       500   1.6318101     -4.7328756      0             -2.2900559      5.8047779    
       550   1.6866656     -4.8110436      0             -2.2861053      5.5595233    
       600   1.6697273     -4.7878837      0             -2.288302       5.6917243    
       650   1.6825496     -4.8079765      0             -2.2891997      5.504302     
       700   1.6209771     -4.714972       0             -2.2883693      5.9413591    
       750   1.6254553     -4.7190049      0             -2.2856983      6.1116248    
       800   1.6071927     -4.6922083      0             -2.2862408      6.1828821    
       850   1.6365993     -4.737851       0             -2.2878618      5.9233248    
       900   1.6897565     -4.8171573      0             -2.2875918      5.5188706    
       950   1.6203188     -4.7149447      0             -2.2893275      6.0618342    
      1000   1.6414492     -4.7440476      0             -2.2867982      5.8337868    
Loop time of 0.144921 on 4 procs for 1000 steps with 500 atoms

Performance: 2980927.133 tau/day, 6900.294 timesteps/s, 3.450 Matom-step/s
95.0% CPU use with 4 MPI tasks x no OpenMP threads

MPI task timing breakdown:
Section |  min time  |  avg time  |  max time  |%varavg| %total
---------------------------------------------------------------
Pair    | 0.044297   | 0.04899    | 0.052575   |   1.6 | 33.80
Neigh   | 0.03137    | 0.034051   | 0.036849   |   1.3 | 23.50
Comm    | 0.052189   | 0.058306   | 0.06584    |   2.5 | 40.23
Output  | 0.00026097 | 0.00030211 | 0.0003739  |   0.0 |  0.21
Modify  | 0.00082647 | 0.00098304 | 0.0011461  |   0.0 |  0.68
Other   |            | 0.002289   |            |       |  1.58

Nlocal:            125 ave         127 max         121 min
Histogram: 1 0 0 0 0 0 0 0 2 1
Nghost:          997.5 ave        1013 max         980 min
Histogram: 1 0 1 0 0 0 0 0 1 1
Neighs:           4750 ave        4930 max        4458 min
Histogram: 1 0 0 0 0 0 1 0 1 1

Total # of neighbors = 19000
Ave neighs/atom = 38
Neighbor list builds = 144
Dangerous builds = 1

fix             2 all hmc 100 6234 1.5 resample yes

#dump           id all atom 50 dump.melt

#dump           2 all image 25 image.*.jpg type type #               axes yes 0.8 0.02 view 60 -30
#dump_modify    2 pad 3

#dump           3 all movie 25 movie.mpg type type #               axes yes 0.8 0.02 view 60 -30
#dump_modify    3 pad 3

thermo_style    custom step temp pe ke etotal f_2 f_2[*]

timestep        0.005
run             50000
Generated 0 of 0 mixed pair_coeff terms from geometric mixing rule
Per MPI rank memory allocation (min/avg/max) = 4.004 | 4.004 | 4.004 Mbytes
   Step          Temp          PotEng         KinEng         TotEng          f_2           f_2[1]         f_2[2]         f_2[3]         f_2[4]         f_2[5]    
      1000   1.4604188     -4.7440476      2.186247      -2.5578006      0              0              0              0              0              0            
      1050   1.5031932     -4.8086566      2.2502802     -2.5583764      0              0              0              0              0              0            
      1100   1.5451595     -4.8280725      2.3131038     -2.5149687      1              1              1             -42.012448      41.613545     -0.39890243   
      1150   1.6123874     -4.9283643      2.4137439     -2.5146205      1              1              1             -42.012448      41.613545     -0.39890243   
      1200   1.5228849     -4.8015814      2.2797587     -2.5218227      1              2              2              13.245535     -12.315906      0.92962945   
      1250   1.5842674     -4.8958612      2.3716482     -2.5242129      1              2              2              13.245535     -12.315906      0.92962945   
      1300   1.5358901     -4.8559477      2.2992275     -2.5567203      1              3              3             -27.183157      27.249227      0.066070122  
      1350   1.5121657     -4.8201133      2.263712      -2.5564013      1              3              3             -27.183157      27.249227      0.066070122  
      1400   1.4717848     -4.8019847      2.2032619     -2.5987228      1              4              4              26.981533     -26.898312      0.083221149  
      1450   1.5411624     -4.9086592      2.3071202     -2.601539       1              4              4              26.981533     -26.898312      0.083221149  
      1500   1.4403268     -4.8445692      2.1561692     -2.6884         1              5              5             -21.292234      19.617704     -1.6745297    
      1550   1.410203      -4.8002324      2.1110738     -2.6891585      1              5              5             -21.292234      19.617704     -1.6745297    
      1600   1.4357162     -4.8847477      2.1492671     -2.7354806      1              6              6             -20.089251      20.876526      0.78727484   
      1650   1.4174109     -4.8543003      2.1218641     -2.7324362      1              6              6             -20.089251      20.876526      0.78727484   
      1700   1.4793588     -4.8748755      2.2146001     -2.6602755      1              7              7              4.9360645     -4.26699        0.66907457   
      1750   1.4227797     -4.7909774      2.1299013     -2.6610762      1              7              7              4.9360645     -4.26699        0.66907457   
      1800   1.4993732     -4.8748755      2.2445617     -2.6303138      0.875          7              8              25.608128     -25.414359      0.1937681    
      1850   1.5026921     -4.8626806      2.24953       -2.6131506      0.875          7              8              25.608128     -25.414359      0.1937681    
      1900   1.4542119     -4.8748755      2.1769551     -2.6979204      0.77777778     7              9              7.777078       1.7811714      9.5582495    
      1950   1.4710233     -4.8917755      2.2021219     -2.6896536      0.77777778     7              9              7.777078       1.7811714      9.5582495    
      2000   1.4577572     -4.8748755      2.1822625     -2.692613       0.7            7              10            -37.600306      42.349488      4.749182     
      2050   1.4475218     -4.8429606      2.1669401     -2.6760205      0.7            7              10            -37.600306      42.349488      4.749182     
      2100   1.4509711     -4.8748755      2.1721037     -2.7027718      0.63636364     7              11             17.194404     -8.524619       8.6697852    
      2150   1.4508354     -4.8571681      2.1719005     -2.6852675      0.63636364     7              11             17.194404     -8.524619       8.6697852    
      2200   1.5227971     -4.8748755      2.2796273     -2.5952483      0.58333333     7              12            -36.202442      43.771749      7.5693074    
      2250   1.4948267     -4.8433126      2.2377556     -2.605557       0.58333333     7              12            -36.202442      43.771749      7.5693074    
      2300   1.546847      -4.8145072      2.3156299     -2.4988774      0.61538462     8              13             30.18414      -36.370065     -6.1859248    
      2350   1.5083015     -4.7559699      2.2579273     -2.4980426      0.61538462     8              13             30.18414      -36.370065     -6.1859248    
      2400   1.4860499     -4.8145072      2.2246166     -2.5898906      0.57142857     8              14            -9.5810431      10.902931      1.3218877    
      2450   1.4636594     -4.7590976      2.1910981     -2.5679995      0.57142857     8              14            -9.5810431      10.902931      1.3218877    
      2500   1.5509252     -4.8145072      2.321735      -2.4927723      0.53333333     8              15            -28.868698      38.302406      9.433708     
      2550   1.5394449     -4.7775815      2.3045491     -2.4730324      0.53333333     8              15            -28.868698      38.302406      9.433708     
      2600   1.4452942     -4.8145072      2.1636054     -2.6509019      0.5            8              16             8.4765241      1.3674388      9.8439629    
      2650   1.4798452     -4.855106       2.2153283     -2.6397777      0.5            8              16             8.4765241      1.3674388      9.8439629    
      2700   1.4992916     -4.8145072      2.2444395     -2.5700678      0.47058824     8              17            -47.093855      52.53244       5.4385856    
      2750   1.5437769     -4.8659095      2.311034      -2.5548756      0.47058824     8              17            -47.093855      52.53244       5.4385856    
      2800   1.5899763     -4.8145072      2.3801945     -2.4343127      0.44444444     8              18            -37.715134      46.052128      8.3369939    
      2850   1.557787      -4.7556609      2.3320071     -2.4236539      0.44444444     8              18            -37.715134      46.052128      8.3369939    
      2900   1.4628374     -4.8145072      2.1898676     -2.6246397      0.42105263     8              19             41.549181     -35.656598      5.8925834    
      2950   1.4897266     -4.8417435      2.2301208     -2.6116227      0.42105263     8              19             41.549181     -35.656598      5.8925834    
      3000   1.505923      -4.8145072      2.2543667     -2.5601406      0.4            8              20             35.599032     -29.538243      6.0607884    
      3050   1.5145881     -4.8208141      2.2673384     -2.5534757      0.4            8              20             35.599032     -29.538243      6.0607884    
      3100   1.5279486     -4.8145072      2.287339      -2.5271683      0.38095238     8              21            -4.4594547      7.6283717      3.168917     
      3150   1.5737876     -4.8772904      2.35596       -2.5213304      0.38095238     8              21            -4.4594547      7.6283717      3.168917     
      3200   1.5356551     -4.8145072      2.2988757     -2.5156315      0.36363636     8              22            -5.0087817      8.5421994      3.5334176    
      3250   1.531191      -4.7959068      2.292193      -2.5037138      0.36363636     8              22            -5.0087817      8.5421994      3.5334176    
      3300   1.5723717     -4.8145072      2.3538405     -2.4606668      0.34782609     8              23             5.4653042      0.26538171     5.7306859    
      3350   1.5933777     -4.8272844      2.3852864     -2.441998       0.34782609     8              23             5.4653042      0.26538171     5.7306859    
      3400   1.4785177     -4.8145072      2.2133409     -2.6011663      0.33333333     8              24             19.021285     -8.7920582      10.229226    
      3450   1.4684931     -4.7869723      2.1983342     -2.5886381      0.33333333     8              24             19.021285     -8.7920582      10.229226    
      3500   1.6422343     -4.8145072      2.4584247     -2.3560826      0.32           8              25            -31.498657      37.365637      5.8669802    
      3550   1.5627881     -4.6866352      2.3394939     -2.3471414      0.32           8              25            -31.498657      37.365637      5.8669802    
      3600   1.4771311     -4.8145072      2.2112653     -2.6032419      0.30769231     8              26             24.262172     -20.055798      4.2063738    
      3650   1.5207599     -4.8701555      2.2765776     -2.5935778      0.30769231     8              26             24.262172     -20.055798      4.2063738    
      3700   1.5035565     -4.8145072      2.250824      -2.5636832      0.2962963      8              27             8.6761128     -2.9100521      5.7660607    
      3750   1.578801      -4.907065       2.3634651     -2.5435999      0.2962963      8              27             8.6761128     -2.9100521      5.7660607    
      3800   1.4378458     -4.8145072      2.1524552     -2.6620521      0.28571429     8              28            -20.078585      29.973829      9.8952439    
      3850   1.4283438     -4.7971763      2.1382307     -2.6589456      0.28571429     8              28            -20.078585      29.973829      9.8952439    
      3900   1.5237385     -4.8145072      2.2810365     -2.5334708      0.27586207     8              29            -46.850955      47.947433      1.0964783    
      3950   1.5055162     -4.7694657      2.2537577     -2.515708       0.27586207     8              29            -46.850955      47.947433      1.0964783    
      4000   1.421072      -4.8145072      2.1273447     -2.6871625      0.26666667     8              30            -32.950592      42.027486      9.0768938    
      4050   1.4864328     -4.9002672      2.2251899     -2.6750772      0.26666667     8              30            -32.950592      42.027486      9.0768938    
      4100   1.4697598     -4.8145072      2.2002304     -2.6142769      0.25806452     8              31            -48.964788      54.75993       5.7951416    
      4150   1.4605633     -4.7831822      2.1864632     -2.596719       0.25806452     8              31            -48.964788      54.75993       5.7951416    
      4200   1.533329      -4.8145072      2.2953936     -2.5191137      0.25           8              32            -5.3958348      13.480369      8.0845342    
      4250   1.6088302     -4.9134013      2.4084188     -2.5049826      0.25           8              32            -5.3958348      13.480369      8.0845342    
      4300   1.5357726     -4.8145072      2.2990516     -2.5154556      0.24242424     8              33             3.5104212      3.2369807      6.7474019    
      4350   1.5396481     -4.8188043      2.3048533     -2.513951       0.24242424     8              33             3.5104212      3.2369807      6.7474019    
      4400   1.5012946     -4.8145072      2.247438      -2.5670692      0.23529412     8              34             6.5881329     -5.3071984      1.2809345    
      4450   1.5732278     -4.9170581      2.355122      -2.5619361      0.23529412     8              34             6.5881329     -5.3071984      1.2809345    
      4500   1.5021889     -4.8145072      2.2487768     -2.5657304      0.22857143     8              35            -46.301755      48.992262      2.6905065    
      4550   1.5442372     -4.8711092      2.3117231     -2.5593861      0.22857143     8              35            -46.301755      48.992262      2.6905065    
      4600   1.5000001     -4.8145072      2.2455001     -2.5690071      0.22222222     8              36            -27.457779      31.788816      4.3310367    
      4650   1.5582903     -4.8840627      2.3327606     -2.5513021      0.22222222     8              36            -27.457779      31.788816      4.3310367    
      4700   1.4572143     -4.8145072      2.1814498     -2.6330574      0.21621622     8              37             1.8524277      6.3231763      8.175604     
      4750   1.4434696     -4.7689519      2.1608739     -2.608078       0.21621622     8              37             1.8524277      6.3231763      8.175604     
      4800   1.4665858     -4.8145072      2.1954789     -2.6190283      0.21052632     8              38            -24.423629      36.421037      11.997408    
      4850   1.5279284     -4.9185178      2.2873088     -2.631209       0.21052632     8              38            -24.423629      36.421037      11.997408    
      4900   1.583932      -4.7822863      2.3711461     -2.4111401      0.23076923     9              39             16.110489     -22.34931      -6.2388205    
      4950   1.585582      -4.7838305      2.3736162     -2.4102143      0.23076923     9              39             16.110489     -22.34931      -6.2388205    
      5000   1.4322569     -4.7752396      2.1440885     -2.631151       0.25           10             40             3.5233393     -2.7579692      0.7653701    
      5050   1.5394901     -4.9364776      2.3046166     -2.631861       0.25           10             40             3.5233393     -2.7579692      0.7653701    
      5100   1.4207213     -4.8516674      2.1268199     -2.7248475      0.26829268     11             41            -38.213885      37.251408     -0.96247733   
      5150   1.4563711     -4.9022243      2.1801876     -2.7220367      0.26829268     11             41            -38.213885      37.251408     -0.96247733   
      5200   1.5748527     -4.8516674      2.3575545     -2.4941129      0.26190476     11             42            -61.972768      62.820989      0.84822095   
      5250   1.5260898     -4.7729907      2.2845564     -2.4884343      0.26190476     11             42            -61.972768      62.820989      0.84822095   
      5300   1.5103662     -4.8516674      2.2610182     -2.5906492      0.25581395     11             43             9.4721151     -6.1129085      3.3592066    
      5350   1.5362496     -4.8825559      2.2997656     -2.5827903      0.25581395     11             43             9.4721151     -6.1129085      3.3592066    
      5400   1.4717119     -4.8516674      2.2031527     -2.6485146      0.25           11             44             37.184162     -33.494712      3.6894495    
      5450   1.3844351     -4.7101771      2.0724993     -2.6376778      0.25           11             44             37.184162     -33.494712      3.6894495    
      5500   1.5411959     -4.8516674      2.3071703     -2.544497       0.24444444     11             45            -16.316666      21.161071      4.8444049    
      5550   1.5781604     -4.9182927      2.3625061     -2.5557866      0.24444444     11             45            -16.316666      21.161071      4.8444049    
      5600   1.5146248     -4.8336471      2.2673934     -2.5662537      0.26086957     12             46             9.0101253     -14.540503     -5.5303773    
      5650   1.4992467     -4.8095325      2.2443723     -2.5651602      0.26086957     12             46             9.0101253     -14.540503     -5.5303773    
      5700   1.5424201     -4.8838906      2.3090029     -2.5748877      0.27659574     13             47            -25.12174       24.591008     -0.53073212   
      5750   1.5414736     -4.8830046      2.307586      -2.5754187      0.27659574     13             47            -25.12174       24.591008     -0.53073212   
      5800   1.5295583     -4.9162387      2.2897488     -2.6264899      0.29166667     14             48            -16.174073      15.960863     -0.21320919   
      5850   1.5060086     -4.8802816      2.2544949     -2.6257867      0.29166667     14             48            -16.174073      15.960863     -0.21320919   
      5900   1.5240404     -4.9269762      2.2814885     -2.6454877      0.30612245     15             49            -5.3687332      5.5276438      0.15891054   
      5950   1.510791      -4.9082429      2.2616541     -2.6465888      0.30612245     15             49            -5.3687332      5.5276438      0.15891054   
      6000   1.4665        -4.8794901      2.1953505     -2.6841397      0.32           16             50             23.743027     -23.782107     -0.039080635  
      6050   1.4735525     -4.8890196      2.2059081     -2.6831115      0.32           16             50             23.743027     -23.782107     -0.039080635  
      6100   1.5586951     -4.8224229      2.3333666     -2.4890563      0.33333333     17             51             28.533633     -28.62467      -0.091037119  
      6150   1.5054452     -4.7421127      2.2536515     -2.4884612      0.33333333     17             51             28.533633     -28.62467      -0.091037119  
      6200   1.4676271     -4.8618475      2.1970377     -2.6648098      0.34615385     18             52            -19.712323      19.844969      0.13264575   
      6250   1.4908762     -4.8951853      2.2318417     -2.6633437      0.34615385     18             52            -19.712323      19.844969      0.13264575   
      6300   1.4641758     -4.8967409      2.1918711     -2.7048698      0.35849057     19             53            -17.446698      16.917317     -0.52938083   
      6350   1.5261791     -4.9906751      2.2846901     -2.705985       0.35849057     19             53            -17.446698      16.917317     -0.52938083   
      6400   1.5290179     -4.9640521      2.2889397     -2.6751123      0.37037037     20             54            -33.655571      33.942937      0.28736573   
      6450   1.4749199     -4.8825495      2.2079551     -2.6745944      0.37037037     20             54            -33.655571      33.942937      0.28736573   
      6500   1.4697346     -4.8300926      2.2001927     -2.6298999      0.38181818     21             55             66.979756     -66.487124      0.49263166   
      6550   1.514353      -4.8961307      2.2669864     -2.6291443      0.38181818     21             55             66.979756     -66.487124      0.49263166   
      6600   1.4584881     -4.8767685      2.1833567     -2.6934118      0.39285714     22             56            -23.337967      22.538591     -0.79937537   
      6650   1.4571831     -4.8768623      2.1814031     -2.6954592      0.39285714     22             56            -23.337967      22.538591     -0.79937537   
      6700   1.459393      -4.8905825      2.1847114     -2.7058711      0.40350877     23             57            -6.9069907      6.1373001     -0.76969059   
      6750   1.4662514     -4.897738       2.1949783     -2.7027597      0.40350877     23             57            -6.9069907      6.1373001     -0.76969059   
      6800   1.5693773     -4.8905825      2.3493578     -2.5412247      0.39655172     23             58             34.692941     -33.167517      1.5254241    
      6850   1.4896633     -4.7538435      2.230026      -2.5238176      0.39655172     23             58             34.692941     -33.167517      1.5254241    
      6900   1.4852223     -4.8905825      2.2233778     -2.6672047      0.38983051     23             59             48.394169     -40.442164      7.9520049    
      6950   1.5236715     -4.9393752      2.2809362     -2.658439       0.38983051     23             59             48.394169     -40.442164      7.9520049    
      7000   1.5544614     -4.8905825      2.3270287     -2.5635538      0.38333333     23             60            -1.3183127      6.043735       4.7254224    
      7050   1.5767633     -4.9289695      2.3604146     -2.5685549      0.38333333     23             60            -1.3183127      6.043735       4.7254224    
      7100   1.4395238     -4.8338799      2.1549671     -2.6789128      0.39344262     24             61             28.351281     -30.584218     -2.2329366    
      7150   1.5067548     -4.9354767      2.2556119     -2.6798647      0.39344262     24             61             28.351281     -30.584218     -2.2329366    
      7200   1.4493202     -4.9710785      2.1696324     -2.8014461      0.40322581     25             62            -68.599276      68.069242     -0.53003339   
      7250   1.4269784     -4.938254       2.1361866     -2.8020674      0.40322581     25             62            -68.599276      68.069242     -0.53003339   
      7300   1.448078      -4.8573378      2.1677727     -2.6895651      0.41269841     26             63             56.870327     -55.97285       0.89747744   
      7350   1.4417747     -4.8497401      2.1583368     -2.6914033      0.41269841     26             63             56.870327     -55.97285       0.89747744   
      7400   1.4574011     -4.9075304      2.1817295     -2.7258009      0.421875       27             64            -25.096301      24.894232     -0.20206864   
      7450   1.4708929     -4.9278846      2.2019266     -2.725958       0.421875       27             64            -25.096301      24.894232     -0.20206864   
      7500   1.4411525     -4.9310185      2.1574053     -2.7736132      0.43076923     28             65            -11.744033      10.843918     -0.90011473   
      7550   1.4597001     -4.9576658      2.1851711     -2.7724947      0.43076923     28             65            -11.744033      10.843918     -0.90011473   
      7600   1.5296748     -4.9286598      2.2899232     -2.6387366      0.43939394     29             66             1.179317      -1.4339205     -0.25460347   
      7650   1.5456381     -4.9511595      2.3138202     -2.6373392      0.43939394     29             66             1.179317      -1.4339205     -0.25460347   
      7700   1.5149726     -4.9417598      2.267914      -2.6738458      0.44776119     30             67            -6.5500016      6.7755019      0.22550022   
      7750   1.4400452     -4.8272899      2.1557477     -2.6715422      0.44776119     30             67            -6.5500016      6.7755019      0.22550022   
      7800   1.6004901     -4.9417598      2.3959337     -2.5458262      0.44117647     30             68             64.534239     -63.362799      1.1714405    
      7850   1.4817248     -4.7589799      2.218142      -2.5408379      0.44117647     30             68             64.534239     -63.362799      1.1714405    
      7900   1.4532082     -4.9417598      2.1754527     -2.7663071      0.43478261     30             69             54.256242     -51.842029      2.4142134    
      7950   1.4902098     -4.9833103      2.230844      -2.7524663      0.43478261     30             69             54.256242     -51.842029      2.4142134    
      8000   1.5392488     -4.9417598      2.3042554     -2.6375044      0.42857143     30             70             6.5334588      1.0172384      7.5506971    
      8050   1.5289509     -4.9219634      2.2888394     -2.6331239      0.42857143     30             70             6.5334588      1.0172384      7.5506971    
      8100   1.445399      -4.9417598      2.1637622     -2.7779976      0.42253521     30             71             83.465685     -80.593838      2.8718465    
      8150   1.435736      -4.9211654      2.1492968     -2.7718686      0.42253521     30             71             83.465685     -80.593838      2.8718465    
      8200   1.5479954     -4.9417598      2.3173491     -2.6244107      0.41666667     30             72            -6.5154442      9.8067808      3.2913367    
      8250   1.4367058     -4.7633358      2.1507486     -2.6125872      0.41666667     30             72            -6.5154442      9.8067808      3.2913367    
      8300   1.3812755     -4.9417598      2.0677694     -2.8739905      0.4109589      30             73             11.318604     -6.0281319      5.2904722    
      8350   1.3839732     -4.9372489      2.0718078     -2.8654411      0.4109589      30             73             11.318604     -6.0281319      5.2904722    
      8400   1.477907      -4.8757697      2.2124267     -2.663343       0.41891892     31             74             32.995049     -27.551731      5.443318     
      8450   1.45552       -4.8450907      2.1789134     -2.6661773      0.41891892     31             74             32.995049     -27.551731      5.443318     
      8500   1.4856785     -4.8757697      2.2240607     -2.651709       0.41333333     31             75             19.564508     -19.346484      0.21802426   
      8550   1.4295823     -4.7966423      2.1400847     -2.6565577      0.41333333     31             75             19.564508     -19.346484      0.21802426   
      8600   1.5229527     -4.8371114      2.2798601     -2.5572513      0.42105263     32             76             19.329162     -20.885645     -1.556483     
      8650   1.4977803     -4.7982477      2.2421771     -2.5560707      0.42105263     32             76             19.329162     -20.885645     -1.556483     
      8700   1.4532957     -4.8664467      2.1755837     -2.690863       0.42857143     33             77            -14.667619      14.178973     -0.48864599   
      8750   1.50562       -4.9450166      2.2539131     -2.6911036      0.42857143     33             77            -14.667619      14.178973     -0.48864599   
      8800   1.5173837     -4.8664467      2.2715235     -2.5949232      0.42307692     33             78            -21.525215      22.151038      0.62582378   
      8850   1.5100668     -4.8386472      2.2605699     -2.5780773      0.42307692     33             78            -21.525215      22.151038      0.62582378   
      8900   1.5052456     -4.9163633      2.2533526     -2.6630107      0.43037975     34             79            -24.958319      33.361881      8.4035621    
      8950   1.4822536     -4.8809984      2.2189336     -2.6620648      0.43037975     34             79            -24.958319      33.361881      8.4035621    
      9000   1.4928803     -4.9222568      2.2348418     -2.6874149      0.4375         35             80            -2.9467325      3.5349828      0.58825022   
      9050   1.4464589     -4.8519881      2.1653489     -2.6866392      0.4375         35             80            -2.9467325      3.5349828      0.58825022   
      9100   1.4751113     -4.8775058      2.2082417     -2.6692641      0.44444444     36             81             22.375473     -22.719002     -0.343529     
      9150   1.5090026     -4.9292741      2.258977      -2.6702972      0.44444444     36             81             22.375473     -22.719002     -0.343529     
      9200   1.5747706     -4.8453894      2.3574316     -2.4879577      0.45121951     37             82             16.058227     -16.021635      0.036591263  
      9250   1.5738994     -4.8430736      2.3561275     -2.4869461      0.45121951     37             82             16.058227     -16.021635      0.036591263  
      9300   1.5508285     -4.8094896      2.3215903     -2.4878993      0.45783133     38             83             17.949901     -17.319533      0.63036867   
      9350   1.5563352     -4.8185747      2.3298337     -2.488741       0.45783133     38             83             17.949901     -17.319533      0.63036867   
      9400   1.4669295     -4.7332934      2.1959934     -2.5373         0.46428571     39             84             38.09807      -38.495401     -0.39733163   
      9450   1.5365534     -4.8370352      2.3002204     -2.5368148      0.46428571     39             84             38.09807      -38.495401     -0.39733163   
      9500   1.4932742     -4.8223048      2.2354314     -2.5868733      0.47058824     40             85            -44.505674      43.662905     -0.84276972   
      9550   1.5272121     -4.8703027      2.2862366     -2.5840661      0.47058824     40             85            -44.505674      43.662905     -0.84276972   
      9600   1.5439482     -4.8223048      2.3112905     -2.5110143      0.46511628     40             86            -64.020802      65.841329      1.8205263    
      9650   1.5463381     -4.8119525      2.3148681     -2.4970845      0.46511628     40             86            -64.020802      65.841329      1.8205263    
      9700   1.5440678     -4.8223048      2.3114694     -2.5108353      0.45977011     40             87            -8.2166402      14.939325      6.722685     
      9750   1.5620323     -4.8202516      2.3383624     -2.4818892      0.45977011     40             87            -8.2166402      14.939325      6.722685     
      9800   1.4540262     -4.8223048      2.1766772     -2.6456276      0.45454545     40             88             34.348037     -20.411885      13.936152    
      9850   1.5033129     -4.8893768      2.2504594     -2.6389173      0.45454545     40             88             34.348037     -20.411885      13.936152    
      9900   1.4789382     -4.8223048      2.2139705     -2.6083342      0.4494382      40             89            -28.807427      32.357418      3.5499913    
      9950   1.479767      -4.7937587      2.2152112     -2.5785475      0.4494382      40             89            -28.807427      32.357418      3.5499913    
     10000   1.480784      -4.8223048      2.2167336     -2.6055712      0.44444444     40             90            -0.16225839     14.733651      14.571393    
     10050   1.5336073     -4.8962198      2.2958101     -2.6004098      0.44444444     40             90            -0.16225839     14.733651      14.571393    
     10100   1.5034008     -4.8223048      2.250591      -2.5717137      0.43956044     40             91            -28.163815      30.537642      2.3738271    
     10150   1.5708293     -4.9155594      2.3515315     -2.564028       0.43956044     40             91            -28.163815      30.537642      2.3738271    
     10200   1.4654656     -4.8223048      2.193802      -2.6285027      0.43478261     40             92             29.782731     -27.576199      2.206532     
     10250   1.4608807     -4.7857817      2.1869384     -2.5988433      0.43478261     40             92             29.782731     -27.576199      2.206532     
     10300   1.476954      -4.8223048      2.2110002     -2.6113046      0.43010753     40             93             18.173876     -3.1759792      14.997897    
     10350   1.5311623     -4.880813       2.2921499     -2.5886631      0.43010753     40             93             18.173876     -3.1759792      14.997897    
     10400   1.5034474     -4.8223048      2.2506607     -2.5716441      0.42553191     40             94            -29.112362      40.864022      11.75166     
     10450   1.5085162     -4.81476        2.2582487     -2.5565113      0.42553191     40             94            -29.112362      40.864022      11.75166     
     10500   1.4624936     -4.8223048      2.1893529     -2.6329518      0.42105263     40             95            -7.232146       15.244044      8.0118982    
     10550   1.5456309     -4.9226835      2.3138095     -2.608874       0.42105263     40             95            -7.232146       15.244044      8.0118982    
     10600   1.5584325     -4.8223048      2.3329735     -2.4893313      0.41666667     40             96            -47.061381      58.467489      11.406108    
     10650   1.6087671     -4.8797221      2.4083243     -2.4713978      0.41666667     40             96            -47.061381      58.467489      11.406108    
     10700   1.4981974     -4.8223048      2.2428015     -2.5795033      0.41237113     40             97             32.038052     -23.619677      8.4183756    
     10750   1.479916      -4.7789995      2.2154343     -2.5635652      0.41237113     40             97             32.038052     -23.619677      8.4183756    
     10800   1.4178261     -4.8223048      2.1224857     -2.6998191      0.40816327     40             98             1.1668478      5.999973       7.1668208    
     10850   1.4490639     -4.8577762      2.1692486     -2.6885276      0.40816327     40             98             1.1668478      5.999973       7.1668208    
     10900   1.5024813     -4.8223048      2.2492146     -2.5730902      0.4040404      40             99            -27.027975      33.845266      6.8172914    
     10950   1.5453028     -4.8886516      2.3133183     -2.5753333      0.4040404      40             99            -27.027975      33.845266      6.8172914    
     11000   1.4803477     -4.8761027      2.2160806     -2.6600221      0.41           41             100           -26.898955      25.398298     -1.5006574    
     11050   1.487518      -4.8865747      2.2268144     -2.6597603      0.41           41             100           -26.898955      25.398298     -1.5006574    
     11100   1.616305      -4.8805382      2.4196086     -2.4609296      0.41584158     42             101           -2.2177823      2.1196103     -0.098172014  
     11150   1.5536313     -4.785477       2.325786      -2.459691       0.41584158     42             101           -2.2177823      2.1196103     -0.098172014  
     11200   1.5074601     -4.7045631      2.2566678     -2.4478953      0.42156863     43             102            87.987586     -87.402781      0.58480406   
     11250   1.5345549     -4.7465937      2.2972287     -2.4493649      0.42156863     43             102            87.987586     -87.402781      0.58480406   
     11300   1.5436613     -4.8772728      2.310861      -2.5664118      0.42718447     44             103           -86.354852      86.85027       0.49541798   
     11350   1.5262044     -4.8524355      2.2847281     -2.5677074      0.42718447     44             103           -86.354852      86.85027       0.49541798   
     11400   1.5031709     -4.9355356      2.2502469     -2.6852887      0.43269231     45             104           -29.131403      28.058174     -1.0732297    
     11450   1.4828341     -4.9051414      2.2198026     -2.6853388      0.43269231     45             104           -29.131403      28.058174     -1.0732297    
     11500   1.5085473     -4.8574157      2.2582953     -2.5991204      0.43809524     46             105            39.059962     -38.260202      0.79975988   
     11550   1.4802599     -4.8134032      2.2159491     -2.5974541      0.43809524     46             105            39.059962     -38.260202      0.79975988   
     11600   1.5794017     -4.8574157      2.3643644     -2.4930513      0.43396226     46             106            49.079895     -47.725327      1.3545677    
     11650   1.5967377     -4.8689694      2.3903163     -2.4786531      0.43396226     46             106            49.079895     -47.725327      1.3545677    
     11700   1.6089587     -4.8574157      2.4086112     -2.4488044      0.42990654     46             107           -4.9778378      12.274076      7.2962385    
     11750   1.5869238     -4.8065165      2.375625      -2.4308915      0.42990654     46             107           -4.9778378      12.274076      7.2962385    
     11800   1.4952916     -4.8574157      2.2384515     -2.6189642      0.42592593     46             108           -0.23166088     9.6229124      9.3912515    
     11850   1.548162      -4.9230311      2.3175985     -2.6054326      0.42592593     46             108           -0.23166088     9.6229124      9.3912515    
     11900   1.5070817     -4.8574157      2.2561014     -2.6013143      0.42201835     46             109            16.109644     -8.1038947      8.0057489    
     11950   1.5642401     -4.9317318      2.3416674     -2.5900644      0.42201835     46             109            16.109644     -8.1038947      8.0057489    
     12000   1.4343012     -4.8574157      2.1471489     -2.7102667      0.41818182     46             110           -35.153947      41.938415      6.7844687    
     12050   1.4411253     -4.8748307      2.1573646     -2.7174661      0.41818182     46             110           -35.153947      41.938415      6.7844687    
     12100   1.4510881     -4.8692097      2.1722789     -2.6969308      0.42342342     47             111           -5.8970276      2.2106604     -3.6863672    
     12150   1.405385      -4.8035435      2.1038614     -2.6996822      0.42342342     47             111           -5.8970276      2.2106604     -3.6863672    
     12200   1.4631194     -4.8217512      2.1902897     -2.6314614      0.42857143     48             112            23.729261     -23.981054     -0.25179293   
     12250   1.4908146     -4.8638446      2.2317495     -2.6320952      0.42857143     48             112            23.729261     -23.981054     -0.25179293   
     12300   1.5101614     -4.9125098      2.2607116     -2.6517981      0.43362832     49             113           -45.379301      44.767763     -0.6115379    
     12350   1.50331       -4.9025509      2.250455      -2.6520959      0.43362832     49             113           -45.379301      44.767763     -0.6115379    
     12400   1.4172761     -4.9125098      2.1216623     -2.7908475      0.42982456     49             114            30.583552     -29.04302       1.5405317    
     12450   1.449608      -4.9471856      2.1700632     -2.7771224      0.42982456     49             114            30.583552     -29.04302       1.5405317    
     12500   1.4787764     -4.9125098      2.2137282     -2.6987816      0.42608696     49             115            25.965959     -19.032621      6.9333383    
     12550   1.4708764     -4.8890688      2.2019019     -2.6871669      0.42608696     49             115            25.965959     -19.032621      6.9333383    
     12600   1.4779483     -4.9125098      2.2124886     -2.7000212      0.42241379     49             116            19.708889     -14.494479      5.2144093    
     12650   1.484545      -4.9224922      2.2223639     -2.7001283      0.42241379     49             116            19.708889     -14.494479      5.2144093    
     12700   1.4763294     -4.8882925      2.2100651     -2.6782274      0.42735043     50             117            12.10865      -12.825674     -0.71702414   
     12750   1.4901869     -4.9080123      2.2308098     -2.6772025      0.42735043     50             117            12.10865      -12.825674     -0.71702414   
     12800   1.4214493     -4.8612711      2.1279095     -2.7333616      0.43220339     51             118            13.510695     -13.139196      0.37149851   
     12850   1.4310967     -4.8765753      2.1423518     -2.7342235      0.43220339     51             118            13.510695     -13.139196      0.37149851   
     12900   1.4725886     -4.9589627      2.2044651     -2.7544976      0.43697479     52             119           -48.8458        46.880307     -1.9654935    
     12950   1.4109753     -4.8617097      2.1122301     -2.7494796      0.43697479     52             119           -48.8458        46.880307     -1.9654935    
     13000   1.4808257     -4.9589627      2.216796      -2.7421667      0.43333333     52             120            24.419881     -23.139099      1.2807826    
     13050   1.4562757     -4.9094059      2.1800447     -2.7293612      0.43333333     52             120            24.419881     -23.139099      1.2807826    
     13100   1.5772072     -4.9589627      2.3610792     -2.5978835      0.42975207     52             121            8.6913627     -2.6272795      6.0640831    
     13150   1.4665072     -4.7920799      2.1953612     -2.5967187      0.42975207     52             121            8.6913627     -2.6272795      6.0640831    
     13200   1.5018917     -4.9589627      2.2483319     -2.7106308      0.42622951     52             122            20.816149     -20.225928      0.59022112   
     13250   1.5399611     -5.0124079      2.3053217     -2.7070862      0.42622951     52             122            20.816149     -20.225928      0.59022112   
     13300   1.4819209     -4.9589627      2.2184356     -2.7405271      0.42276423     52             123            9.5488074     -7.7534655      1.7953419    
     13350   1.441875      -4.8876564      2.1584869     -2.7291695      0.42276423     52             123            9.5488074     -7.7534655      1.7953419    
     13400   1.55663       -4.9589627      2.3302751     -2.6286876      0.41935484     52             124           -24.148         29.721006      5.5730054    
     13450   1.4313897     -4.763245       2.1427904     -2.6204546      0.41935484     52             124           -24.148         29.721006      5.5730054    
     13500   1.5582244     -4.9589627      2.3326619     -2.6263008      0.416          52             125            75.927019     -71.391598      4.5354203    
     13550   1.4095289     -4.7309712      2.1100647     -2.6209064      0.416          52             125            75.927019     -71.391598      4.5354203    
     13600   1.5751192     -4.8321276      2.3579535     -2.4741741      0.42063492     53             126            63.417571     -60.674719      2.7428517    
     13650   1.5039094     -4.7263722      2.2513523     -2.4750199      0.42063492     53             126            63.417571     -60.674719      2.7428517    
     13700   1.4860611     -4.8321276      2.2246334     -2.6074942      0.41732283     53             127            22.189993     -20.883668      1.3063252    
     13750   1.4910713     -4.8219096      2.2321338     -2.5897758      0.41732283     53             127            22.189993     -20.883668      1.3063252    
     13800   1.506737      -4.8321276      2.2555853     -2.5765422      0.4140625      53             128           -12.23219       22.044798      9.8126078    
     13850   1.5798397     -4.9098826      2.36502       -2.5448626      0.4140625      53             128           -12.23219       22.044798      9.8126078    
     13900   1.4360251     -4.8321276      2.1497295     -2.682398       0.41085271     53             129            0.16472629     16.263941      16.428667    
     13950   1.4569395     -4.8616128      2.1810385     -2.6805743      0.41085271     53             129            0.16472629     16.263941      16.428667    
     14000   1.5497046     -4.8321276      2.3199078     -2.5122198      0.40769231     53             130            7.7008772     -6.4964967      1.2043805    
     14050   1.5534045     -4.8319799      2.3254466     -2.5065333      0.40769231     53             130            7.7008772     -6.4964967      1.2043805    
     14100   1.4430537     -4.8321276      2.1602514     -2.6718762      0.40458015     53             131            17.34292      -15.399164      1.9437563    
     14150   1.5204104     -4.9482426      2.2760544     -2.6721883      0.40458015     53             131            17.34292      -15.399164      1.9437563    
     14200   1.5042289     -4.9202344      2.2518307     -2.6684037      0.40909091     54             132           -44.05343       44.111941      0.058511317  
     14250   1.426838      -4.8045215      2.1359764     -2.6685451      0.40909091     54             132           -44.05343       44.111941      0.058511317  
     14300   1.4253662     -4.9044511      2.1337732     -2.7706779      0.41353383     55             133            7.8916466     -7.9081047     -0.016458059  
     14350   1.409382      -4.8814401      2.1098449     -2.7715953      0.41353383     55             133            7.8916466     -7.9081047     -0.016458059  
     14400   1.5050259     -4.9044511      2.2530238     -2.6514274      0.41044776     55             134           -22.68275       24.444504      1.7617544    
     14450   1.4548572     -4.8206497      2.1779212     -2.6427285      0.41044776     55             134           -22.68275       24.444504      1.7617544    
     14500   1.3605642     -4.9044511      2.0367646     -2.8676865      0.40740741     55             135            15.982049     -11.853793      4.1282555    
     14550   1.385906      -4.943074       2.0747013     -2.8683727      0.40740741     55             135            15.982049     -11.853793      4.1282555    
     14600   1.4652852     -4.9046894      2.193532      -2.7111574      0.41176471     56             136           -0.119132      -1.0538893     -1.1730213    
     14650   1.4687955     -4.9108895      2.1987869     -2.7121026      0.41176471     56             136           -0.119132      -1.0538893     -1.1730213    
     14700   1.4759537     -4.9394297      2.2095028     -2.729927       0.41605839     57             137           -17.370176      17.520946      0.15077056   
     14750   1.4954239     -4.970227       2.2386496     -2.7315775      0.41605839     57             137           -17.370176      17.520946      0.15077056   
     14800   1.4566307     -4.9083859      2.1805761     -2.7278098      0.42028986     58             138            15.521917     -16.162841     -0.6409242    
     14850   1.5237529     -5.0066893      2.281058      -2.7256313      0.42028986     58             138            15.521917     -16.162841     -0.6409242    
     14900   1.56441       -4.897744       2.3419217     -2.5558223      0.42446043     59             139            5.3209394     -4.9221166      0.39882275   
     14950   1.5577616     -4.8896384      2.3319692     -2.5576692      0.42446043     59             139            5.3209394     -4.9221166      0.39882275   
     15000   1.4767944     -4.8287545      2.2107612     -2.6179933      0.42857143     60             140            34.494743     -34.115106      0.37963717   
     15050   1.4840486     -4.8405255      2.2216207     -2.6189048      0.42857143     60             140            34.494743     -34.115106      0.37963717   
     15100   1.4914884     -4.8895653      2.2327582     -2.6568072      0.43262411     61             141           -30.405388      30.200589     -0.2047991    
     15150   1.5562905     -4.9866126      2.3297668     -2.6568458      0.43262411     61             141           -30.405388      30.200589     -0.2047991    
     15200   1.4621645     -4.8640536      2.1888603     -2.6751934      0.43661972     62             142            12.755839     -13.696398     -0.94055896   
     15250   1.5013761     -4.9197487      2.24756       -2.6721888      0.43661972     62             142            12.755839     -13.696398     -0.94055896   
     15300   1.6008083     -4.8906168      2.3964101     -2.4942067      0.44055944     63             143           -13.281563      14.689075      1.4075128    
     15350   1.5182856     -4.7677378      2.2728736     -2.4948642      0.44055944     63             143           -13.281563      14.689075      1.4075128    
     15400   1.5077448     -4.8329049      2.2570939     -2.575811       0.44444444     64             144            28.855909     -29.675832     -0.81992316   
     15450   1.525842      -4.8588115      2.2841854     -2.5746261      0.44444444     64             144            28.855909     -29.675832     -0.81992316   
     15500   1.4826421     -4.7932181      2.2195152     -2.573703       0.44827586     65             145            19.843406     -19.749318      0.094087821  
     15550   1.4866609     -4.7958574      2.2255313     -2.5703261      0.44827586     65             145            19.843406     -19.749318      0.094087821  
     15600   1.5853538     -4.7932181      2.3732746     -2.4199435      0.44520548     65             146           -23.249583      23.717263      0.46767968   
     15650   1.6226316     -4.8360948      2.4290794     -2.4070153      0.44520548     65             146           -23.249583      23.717263      0.46767968   
     15700   1.5028602     -4.7932181      2.2497817     -2.5434364      0.44217687     65             147           -7.6694358      13.86305       6.1936137    
     15750   1.5282725     -4.8420228      2.2878239     -2.5541989      0.44217687     65             147           -7.6694358      13.86305       6.1936137    
     15800   1.5300159     -4.8149152      2.2904338     -2.5244814      0.44594595     66             148           -10.848551      5.7602264     -5.0883245    
     15850   1.6138392     -4.9411746      2.4159173     -2.5252573      0.44594595     66             148           -10.848551      5.7602264     -5.0883245    
     15900   1.5015905     -4.940568       2.2478809     -2.6926871      0.44966443     67             149           -62.826371      61.806444     -1.019927     
     15950   1.500796      -4.9375998      2.2466916     -2.6909083      0.44966443     67             149           -62.826371      61.806444     -1.019927     
     16000   1.624536      -4.940568       2.4319304     -2.5086376      0.44666667     67             150           -11.028824      11.824167      0.79534343   
     16050   1.5135678     -4.7604239      2.265811      -2.4946129      0.44666667     67             150           -11.028824      11.824167      0.79534343   
     16100   1.5799238     -4.940568       2.365146      -2.575422       0.44370861     67             151            30.282884     -24.04439       6.2384933    
     16150   1.5741866     -4.9255718      2.3565574     -2.5690144      0.44370861     67             151            30.282884     -24.04439       6.2384933    
     16200   1.5342482     -4.940568       2.2967696     -2.6437984      0.44078947     67             152            21.111391     -16.671758      4.4396329    
     16250   1.5055536     -4.8853396      2.2538138     -2.6315258      0.44078947     67             152            21.111391     -16.671758      4.4396329    
     16300   1.5225097     -4.940568       2.279197      -2.6613709      0.4379085      67             153           -3.3341215      8.4798525      5.145731     
     16350   1.5029486     -4.8998071      2.249914      -2.6498931      0.4379085      67             153           -3.3341215      8.4798525      5.145731     
     16400   1.3689761     -4.940568       2.0493573     -2.8912107      0.43506494     67             154            3.4426104      2.0434905      5.4861009    
     16450   1.435043      -5.0286706      2.1482594     -2.8804112      0.43506494     67             154            3.4426104      2.0434905      5.4861009    
     16500   1.5120786     -4.940568       2.2635817     -2.6769863      0.43225806     67             155            1.5717481      3.7421036      5.3138516    
     16550   1.5059107     -4.9133692      2.2543483     -2.6590209      0.43225806     67             155            1.5717481      3.7421036      5.3138516    
     16600   1.4390364     -4.940568       2.1542376     -2.7863304      0.42948718     67             156            86.649985     -77.020315      9.6296703    
     16650   1.3831978     -4.845024       2.0706471     -2.7743769      0.42948718     67             156            86.649985     -77.020315      9.6296703    
     16700   1.4857868     -4.940568       2.2242229     -2.7163451      0.42675159     67             157            6.4221999     -0.38452816     6.0376718    
     16750   1.4903126     -4.9384166      2.230998      -2.7074186      0.42675159     67             157            6.4221999     -0.38452816     6.0376718    
     16800   1.4881567     -4.940568       2.2277706     -2.7127974      0.42405063     67             158           -2.290358       7.9299698      5.6396118    
     16850   1.463983      -4.8886257      2.1915826     -2.6970431      0.42405063     67             158           -2.290358       7.9299698      5.6396118    
     16900   1.5298496     -4.940568       2.2901848     -2.6503832      0.42138365     67             159            22.837566     -15.447038      7.3905279    
     16950   1.5092642     -4.8849478      2.2593686     -2.6255792      0.42138365     67             159            22.837566     -15.447038      7.3905279    
     17000   1.5508014     -4.940568       2.3215497     -2.6190183      0.41875        67             160            51.671695     -39.367247      12.304448    
     17050   1.5185709     -4.8891154      2.2733006     -2.6158148      0.41875        67             160            51.671695     -39.367247      12.304448    
     17100   1.5355584     -4.940568       2.2987309     -2.6418371      0.41614907     67             161            30.89372      -29.473989      1.4197303    
     17150   1.465397      -4.81436        2.1936994     -2.6206606      0.41614907     67             161            30.89372      -29.473989      1.4197303    
     17200   1.4661469     -4.940568       2.194822      -2.745746       0.41358025     67             162            35.415404     -25.507726      9.9076786    
     17250   1.4536012     -4.9173758      2.1760411     -2.7413347      0.41358025     67             162            35.415404     -25.507726      9.9076786    
     17300   1.510265      -4.940568       2.2608667     -2.6797013      0.41104294     67             163            29.873379     -26.950672      2.9227073    
     17350   1.4976315     -4.907228       2.2419543     -2.6652737      0.41104294     67             163            29.873379     -26.950672      2.9227073    
     17400   1.469031      -4.940568       2.1991394     -2.7414285      0.40853659     67             164            27.11361      -19.658881      7.4547292    
     17450   1.4439145     -4.8885219      2.16154       -2.7269818      0.40853659     67             164            27.11361      -19.658881      7.4547292    
     17500   1.5273052     -4.940568       2.2863758     -2.6541922      0.40606061     67             165            17.154292     -9.2758813      7.8784104    
     17550   1.534161      -4.9504594      2.2966391     -2.6538203      0.40606061     67             165            17.154292     -9.2758813      7.8784104    
     17600   1.5014481     -4.940568       2.2476678     -2.6929002      0.40361446     67             166            9.8652306     -8.9604968      0.90473381   
     17650   1.4862243     -4.8921143      2.2248777     -2.6672366      0.40361446     67             166            9.8652306     -8.9604968      0.90473381   
     17700   1.521536      -4.940568       2.2777394     -2.6628286      0.4011976      67             167           -4.611112       17.503951      12.892839    
     17750   1.4344546     -4.8038876      2.1473785     -2.6565091      0.4011976      67             167           -4.611112       17.503951      12.892839    
     17800   1.5043982     -4.940568       2.2520841     -2.6884839      0.39880952     67             168            64.837916     -62.184896      2.6530204    
     17850   1.5482768     -4.9929604      2.3177704     -2.6751901      0.39880952     67             168            64.837916     -62.184896      2.6530204    
     17900   1.5055222     -4.940568       2.2537667     -2.6868013      0.3964497      67             169            115.1114      -108.85284      6.2585591    
     17950   1.4730858     -4.8761909      2.2052094     -2.6709815      0.3964497      67             169            115.1114      -108.85284      6.2585591    
     18000   1.4448938     -4.940568       2.163006      -2.7775619      0.39411765     67             170            73.403664     -64.773975      8.6296887    
     18050   1.4296096     -4.8992086      2.1401256     -2.7590829      0.39411765     67             170            73.403664     -64.773975      8.6296887    
     18100   1.5506441     -4.940568       2.3213142     -2.6192538      0.39181287     67             171            28.961352     -19.464063      9.4972887    
     18150   1.5055609     -4.850007       2.2538246     -2.5961824      0.39181287     67             171            28.961352     -19.464063      9.4972887    
     18200   1.5579359     -4.940568       2.33223       -2.608338       0.38953488     67             172            24.260234     -13.349563      10.910671    
     18250   1.5538845     -4.9241766      2.3261652     -2.5980115      0.38953488     67             172            24.260234     -13.349563      10.910671    
     18300   1.4400895     -4.940568       2.1558139     -2.7847541      0.38728324     67             173            25.17388      -20.474719      4.699161     
     18350   1.3919789     -4.8531934      2.0837924     -2.7694009      0.38728324     67             173            25.17388      -20.474719      4.699161     
     18400   1.4845114     -4.940568       2.2223135     -2.7182545      0.38505747     67             174            18.879024     -10.894314      7.9847096    
     18450   1.4095271     -4.8067758      2.1100621     -2.6967137      0.38505747     67             174            18.879024     -10.894314      7.9847096    
     18500   1.5435926     -4.940568       2.3107582     -2.6298098      0.38285714     67             175           -9.3161429      19.469307      10.153165    
     18550   1.5343622     -4.9127664      2.2969402     -2.6158262      0.38285714     67             175           -9.3161429      19.469307      10.153165    
     18600   1.5630996     -4.940568       2.3399601     -2.6006079      0.38068182     67             176            34.298117     -27.043165      7.2549522    
     18650   1.5208964     -4.8675301      2.2767819     -2.5907482      0.38068182     67             176            34.298117     -27.043165      7.2549522    
     18700   1.5124155     -4.940568       2.2640859     -2.676482       0.37853107     67             177            43.878651     -39.916568      3.9620834    
     18750   1.5226793     -4.9247364      2.2794509     -2.6452855      0.37853107     67             177            43.878651     -39.916568      3.9620834    
     18800   1.4410691     -4.940568       2.1572805     -2.7832875      0.37640449     67             178            13.663357      2.1445288      15.807886    
     18850   1.4588576     -4.9491899      2.1839098     -2.7652801      0.37640449     67             178            13.663357      2.1445288      15.807886    
     18900   1.5365659     -4.940568       2.3002392     -2.6403288      0.37430168     67             179           -7.0921077      16.163822      9.0717142    
     18950   1.4606294     -4.818183       2.1865623     -2.6316208      0.37430168     67             179           -7.0921077      16.163822      9.0717142    
     19000   1.537144      -4.940568       2.3011045     -2.6394634      0.37222222     67             180            64.363758     -58.792191      5.571567     
     19050   1.5087244     -4.8963968      2.2585604     -2.6378364      0.37222222     67             180            64.363758     -58.792191      5.571567     
     19100   1.6120012     -4.8751705      2.4131659     -2.4620046      0.37569061     68             181            32.698761     -32.745138     -0.046376294  
     19150   1.5930196     -4.845548       2.3847503     -2.4607977      0.37569061     68             181            32.698761     -32.745138     -0.046376294  
     19200   1.5814684     -4.8229379      2.3674582     -2.4554798      0.37912088     69             182            26.116265     -26.21177      -0.095504706  
     19250   1.5677652     -4.8036973      2.3469445     -2.4567528      0.37912088     69             182            26.116265     -26.21177      -0.095504706  
     19300   1.5584306     -4.7389308      2.3329706     -2.4059602      0.38251366     70             183            42.003551     -41.588571      0.41498022   
     19350   1.5746915     -4.764558       2.3573132     -2.4072447      0.38251366     70             183            42.003551     -41.588571      0.41498022   
     19400   1.4684959     -4.6792712      2.1983383     -2.4809329      0.38586957     71             184            29.829796     -29.575182      0.25461333   
     19450   1.5384519     -4.7831203      2.3030624     -2.4800579      0.38586957     71             184            29.829796     -29.575182      0.25461333   
     19500   1.5162371     -4.7694363      2.2698069     -2.4996294      0.38918919     72             185           -45.082546      45.748634      0.66608773   
     19550   1.5408282     -4.8086981      2.3066198     -2.5020783      0.38918919     72             185           -45.082546      45.748634      0.66608773   
     19600   1.4705268     -4.7694363      2.2013786     -2.5680578      0.38709677     72             186           -3.396649       3.7373108      0.34066178   
     19650   1.4916512     -4.7670546      2.2330019     -2.5340527      0.38709677     72             186           -3.396649       3.7373108      0.34066178   
     19700   1.569788      -4.7694363      2.3499727     -2.4194636      0.38502674     72             187           -1.2196355      18.551265      17.33163     
     19750   1.5977084     -4.7917456      2.3917695     -2.3999761      0.38502674     72             187           -1.2196355      18.551265      17.33163     
     19800   1.510288      -4.7694363      2.2609011     -2.5085352      0.38297872     72             188            1.230105       8.0371         9.267205     
     19850   1.6021521     -4.8951369      2.3984217     -2.4967152      0.38297872     72             188            1.230105       8.0371         9.267205     
     19900   1.4257141     -4.7694363      2.134294      -2.6351423      0.38095238     72             189           -52.211728      58.15333       5.9416021    
     19950   1.4388166     -4.7707082      2.1539084     -2.6167998      0.38095238     72             189           -52.211728      58.15333       5.9416021    
     20000   1.4579276     -4.7694363      2.1825176     -2.5869187      0.37894737     72             190           -20.171677      29.190717      9.01904      
     20050   1.5400821     -4.8789883      2.3055029     -2.5734854      0.37894737     72             190           -20.171677      29.190717      9.01904      
     20100   1.481676      -4.7694363      2.218069      -2.5513674      0.37696335     72             191           -49.605732      55.568103      5.9623714    
     20150   1.4806943     -4.7650246      2.2165994     -2.5484252      0.37696335     72             191           -49.605732      55.568103      5.9623714    
     20200   1.4570179     -4.7694363      2.1811558     -2.5882805      0.375          72             192           -16.723299      17.539695      0.81639621   
     20250   1.5342935     -4.8597373      2.2968374     -2.5628999      0.375          72             192           -16.723299      17.539695      0.81639621   
     20300   1.5825635     -4.7694363      2.3690975     -2.4003388      0.37305699     72             193           -14.413121      27.180464      12.767343    
     20350   1.5843717     -4.7568927      2.3718045     -2.3850883      0.37305699     72             193           -14.413121      27.180464      12.767343    
     20400   1.4656933     -4.7694363      2.1941429     -2.5752934      0.37113402     72             194            24.130044     -17.215172      6.9148718    
     20450   1.5586449     -4.8983335      2.3332914     -2.5650421      0.37113402     72             194            24.130044     -17.215172      6.9148718    
     20500   1.5673413     -4.7694363      2.34631       -2.4231263      0.36923077     72             195           -33.498623      38.877228      5.3786048    
     20550   1.6152972     -4.8379135      2.4180999     -2.4198136      0.36923077     72             195           -33.498623      38.877228      5.3786048    
     20600   1.4819523     -4.7692149      2.2184826     -2.5507324      0.37244898     73             196            0.11069204     1.2111111      1.3218032    
     20650   1.548375      -4.8655524      2.3179174     -2.5476351      0.37244898     73             196            0.11069204     1.2111111      1.3218032    
     20700   1.5432524     -4.7692149      2.3102489     -2.4589661      0.37055838     73             197            21.414354     -20.122401      1.2919524    
     20750   1.6230524     -4.8623807      2.4297094     -2.4326712      0.37055838     73             197            21.414354     -20.122401      1.2919524    
     20800   1.5164918     -4.7692149      2.2701882     -2.4990268      0.36868687     73             198           -11.763855      25.650004      13.886149    
     20850   1.592448      -4.8753094      2.3838947     -2.4914147      0.36868687     73             198           -11.763855      25.650004      13.886149    
     20900   1.5456683     -4.7692149      2.3138655     -2.4553494      0.36683417     73             199           -46.982833      51.153223      4.1703907    
     20950   1.5343768     -4.7392846      2.296962      -2.4423225      0.36683417     73             199           -46.982833      51.153223      4.1703907    
     21000   1.546609      -4.7692149      2.3152737     -2.4539412      0.365          73             200           -24.845579      30.792111      5.9465324    
     21050   1.6284063     -4.8813313      2.4377242     -2.4436071      0.365          73             200           -24.845579      30.792111      5.9465324    
     21100   1.5534347     -4.7692149      2.3254917     -2.4437232      0.36318408     73             201           -28.667913      33.082923      4.4150103    
     21150   1.4935722     -4.6662669      2.2358775     -2.4303893      0.36318408     73             201           -28.667913      33.082923      4.4150103    
     21200   1.5053691     -4.7692149      2.2535375     -2.5156774      0.36138614     73             202           -18.753493      24.867038      6.1135446    
     21250   1.5174603     -4.7688369      2.271638      -2.4971989      0.36138614     73             202           -18.753493      24.867038      6.1135446    
     21300   1.5015837     -4.7692149      2.2478708     -2.5213441      0.35960591     73             203           -57.539747      65.990141      8.4503935    
     21350   1.5715962     -4.8618736      2.3526796     -2.509194       0.35960591     73             203           -57.539747      65.990141      8.4503935    
     21400   1.4960493     -4.7692149      2.2395857     -2.5296292      0.35784314     73             204           -10.824537      17.326226      6.5016889    
     21450   1.57481       -4.8665093      2.3574905     -2.5090188      0.35784314     73             204           -10.824537      17.326226      6.5016889    
     21500   1.4689346     -4.7692149      2.198995      -2.5702199      0.35609756     73             205           -59.382698      69.464518      10.08182     
     21550   1.5286576     -4.8425888      2.2884004     -2.5541884      0.35609756     73             205           -59.382698      69.464518      10.08182     
     21600   1.4344863     -4.7692149      2.147426      -2.6217889      0.35436893     73             206           -45.257054      53.265035      8.007981     
     21650   1.5166113     -4.8702549      2.2703672     -2.5998877      0.35436893     73             206           -45.257054      53.265035      8.007981     
     21700   1.4949343     -4.7692149      2.2379167     -2.5312983      0.352657       73             207           -109.31372      121.11114      11.797422    
     21750   1.5471917     -4.8321453      2.316146      -2.5159993      0.352657       73             207           -109.31372      121.11114      11.797422    
     21800   1.4991865     -4.7692149      2.2442822     -2.5249328      0.35096154     73             208            16.705271     -9.3950559      7.3102155    
     21850   1.5452514     -4.8220545      2.3132413     -2.5088131      0.35096154     73             208            16.705271     -9.3950559      7.3102155    
     21900   1.4200284     -4.7692149      2.1257825     -2.6434324      0.3492823      73             209           -13.267682      21.123282      7.8555999    
     21950   1.4743901     -4.8388163      2.207162      -2.6316544      0.3492823      73             209           -13.267682      21.123282      7.8555999    
     22000   1.5134053     -4.7692149      2.2655678     -2.5036472      0.34761905     73             210           -61.794209      67.709751      5.915542     
     22050   1.530738      -4.7754654      2.2915148     -2.4839506      0.34761905     73             210           -61.794209      67.709751      5.915542     
     22100   1.5229287     -4.7692149      2.2798242     -2.4893907      0.34597156     73             211           -33.803533      42.937603      9.1340703    
     22150   1.579196      -4.8437605      2.3640564     -2.4797041      0.34597156     73             211           -33.803533      42.937603      9.1340703    
     22200   1.5561235     -4.7692149      2.3295169     -2.439698       0.34433962     73             212            55.176398     -50.144399      5.0319993    
     22250   1.5579087     -4.7684138      2.3321893     -2.4362245      0.34433962     73             212            55.176398     -50.144399      5.0319993    
     22300   1.5240346     -4.7692149      2.2814797     -2.4877352      0.342723       73             213            5.5444778     -2.2995439      3.2449339    
     22350   1.6117713     -4.8862201      2.4128217     -2.4733985      0.342723       73             213            5.5444778     -2.2995439      3.2449339    
     22400   1.4912762     -4.7692149      2.2324404     -2.5367745      0.3411215      73             214           -33.773457      41.372809      7.5993519    
     22450   1.4910513     -4.7490649      2.2321038     -2.5169611      0.3411215      73             214           -33.773457      41.372809      7.5993519    
     22500   1.4410406     -4.7692149      2.1572378     -2.6119771      0.33953488     73             215           -39.893587      50.906142      11.012555    
     22550   1.5049489     -4.8549239      2.2529084     -2.6020155      0.33953488     73             215           -39.893587      50.906142      11.012555    
     22600   1.5021259     -4.8629147      2.2486824     -2.6142322      0.34259259     74             216           -46.849861      51.315803      4.4659417    
     22650   1.5451246     -4.9244985      2.3130515     -2.611447       0.34259259     74             216           -46.849861      51.315803      4.4659417    
     22700   1.4647128     -4.8148955      2.192675      -2.6222205      0.34562212     75             217            24.009598     -23.668696      0.3409019    
     22750   1.5264744     -4.9073201      2.2851321     -2.622188       0.34562212     75             217            24.009598     -23.668696      0.3409019    
     22800   1.5193903     -4.8148955      2.2745273     -2.5403682      0.3440367      75             218           -18.888503      20.092888      1.204385     
     22850   1.4976713     -4.7687948      2.2420139     -2.5267809      0.3440367      75             218           -18.888503      20.092888      1.204385     
     22900   1.5035303     -4.8148955      2.2507849     -2.5641106      0.34246575     75             219           -69.608893      75.977695      6.3688023    
     22950   1.5648143     -4.9080096      2.3425271     -2.5654826      0.34246575     75             219           -69.608893      75.977695      6.3688023    
     23000   1.5114085     -4.8838905      2.2625785     -2.621312       0.34545455     76             220           -34.497514      33.163328     -1.3341859    
     23050   1.437652      -4.7695617      2.152165      -2.6173967      0.34545455     76             220           -34.497514      33.163328     -1.3341859    
     23100   1.5576027     -4.8310498      2.3317312     -2.4993186      0.34841629     77             221            26.420324     -25.518753      0.90157011   
     23150   1.5554321     -4.82598        2.3284819     -2.4974981      0.34841629     77             221            26.420324     -25.518753      0.90157011   
     23200   1.4684755     -4.8208164      2.1983078     -2.6225086      0.35135135     78             222            5.1167064     -4.1846242      0.93208214   
     23250   1.4553092     -4.8040161      2.1785978     -2.6254183      0.35135135     78             222            5.1167064     -4.1846242      0.93208214   
     23300   1.5249978     -4.8857467      2.2829216     -2.602825       0.35426009     79             223           -32.465114      32.5298        0.064686169  
     23350   1.5320415     -4.8972653      2.2934661     -2.6037992      0.35426009     79             223           -32.465114      32.5298        0.064686169  
     23400   1.4378341     -4.9435899      2.1524376     -2.7911523      0.35714286     80             224           -28.921618      28.355188     -0.56642987   
     23450   1.4023796     -4.8908622      2.0993622     -2.7914999      0.35714286     80             224           -28.921618      28.355188     -0.56642987   
     23500   1.5180452     -4.9157802      2.2725136     -2.6432667      0.36           81             225            13.904827     -14.54367      -0.63884289   
     23550   1.5037091     -4.8935326      2.2510525     -2.64248        0.36           81             225            13.904827     -14.54367      -0.63884289   
     23600   1.5479115     -4.8747329      2.3172235     -2.5575094      0.36283186     82             226            20.52368      -20.017622      0.50605791   
     23650   1.4699132     -4.7570805      2.20046       -2.5566205      0.36283186     82             226            20.52368      -20.017622      0.50605791   
     23700   1.4301461     -4.85031        2.1409287     -2.7093812      0.36563877     83             227            12.211451     -12.225745     -0.01429388   
     23750   1.4458243     -4.8729333      2.164399      -2.7085343      0.36563877     83             227            12.211451     -12.225745     -0.01429388   
     23800   1.5375113     -4.9160633      2.3016544     -2.6144089      0.36842105     84             228           -32.876671      32.355728     -0.52094308   
     23850   1.5771957     -4.9739933      2.3610619     -2.6129314      0.36842105     84             228           -32.876671      32.355728     -0.52094308   
     23900   1.4465565     -4.9160633      2.165495      -2.7505683      0.36681223     84             229            35.128932     -34.770559      0.35837261   
     23950   1.4445175     -4.8941334      2.1624427     -2.7316907      0.36681223     84             229            35.128932     -34.770559      0.35837261   
     24000   1.4796252     -4.9160633      2.2149989     -2.7010644      0.36521739     84             230            32.709972     -24.040335      8.669637     
[...]
     45250   1.5289321     -4.8827039      2.2888114     -2.5938925      0.35520362     157            442           -57.531606      57.372001     -0.15960487   
     45300   1.4491034     -4.8089922      2.1693078     -2.6396844      0.35665914     158            443            79.526316     -80.357847     -0.83153023   
     45350   1.5045792     -4.8918379      2.2523551     -2.6394829      0.35665914     158            443            79.526316     -80.357847     -0.83153023   
     45400   1.489019      -4.9609331      2.2290614     -2.7318717      0.35810811     159            444           -75.970468      76.846085      0.87561709   
     45450   1.4961759     -4.9717468      2.2397753     -2.7319715      0.35810811     159            444           -75.970468      76.846085      0.87561709   
     45500   1.4865292     -4.9505734      2.2253343     -2.7252392      0.35955056     160            445            5.1798544     -5.3221412     -0.14228686   
     45550   1.504591      -4.9780325      2.2523727     -2.7256598      0.35955056     160            445            5.1798544     -5.3221412     -0.14228686   
     45600   1.4352542     -4.8567551      2.1485755     -2.7081795      0.36098655     161            446            46.90918      -47.354336     -0.44515559   
     45650   1.4400539     -4.8618753      2.1557607     -2.7061145      0.36098655     161            446            46.90918      -47.354336     -0.44515559   
     45700   1.4586715     -4.8433414      2.1836312     -2.6597102      0.36241611     162            447            6.7068234     -5.9420603      0.76476311   
     45750   1.4879988     -4.8859016      2.2275342     -2.6583675      0.36241611     162            447            6.7068234     -5.9420603      0.76476311   
     45800   1.5193107     -4.8933742      2.2744081     -2.6189661      0.36383929     163            448           -25.016369      24.423834     -0.59253542   
     45850   1.5444659     -4.9306654      2.3120655     -2.6185999      0.36383929     163            448           -25.016369      24.423834     -0.59253542   
     45900   1.3966185     -4.8813204      2.0907379     -2.7905825      0.36525612     164            449            6.0268671     -6.3040784     -0.27721132   
     45950   1.493165      -5.0259698      2.2352681     -2.7907017      0.36525612     164            449            6.0268671     -6.3040784     -0.27721132   
     46000   1.4379795     -4.9293459      2.1526553     -2.7766906      0.36666667     165            450           -24.012727      24.467764      0.45503741   
     46050   1.3914234     -4.8579067      2.0829608     -2.7749459      0.36666667     165            450           -24.012727      24.467764      0.45503741   
     46100   1.4752033     -4.8848732      2.2083794     -2.6764938      0.36807095     166            451            22.236358     -22.038015      0.19834306   
     46150   1.5304771     -4.9682006      2.2911241     -2.6770764      0.36807095     166            451            22.236358     -22.038015      0.19834306   
     46200   1.5146        -4.8738609      2.2673562     -2.6065047      0.36946903     167            452            5.5061178     -4.5107711      0.99534669   
     46250   1.5348764     -4.9046797      2.29771       -2.6069697      0.36946903     167            452            5.5061178     -4.5107711      0.99534669   
     46300   1.4791314     -4.8480338      2.2142597     -2.6337741      0.37086093     168            453            12.913565     -14.161036     -1.2474704    
     46350   1.5116018     -4.895855       2.262868      -2.632987       0.37086093     168            453            12.913565     -14.161036     -1.2474704    
     46400   1.4676326     -4.8300159      2.1970459     -2.6329699      0.3722467      169            454            9.0089699     -7.7730599      1.23591      
     46450   1.5125662     -4.898395       2.2643117     -2.6340833      0.3722467      169            454            9.0089699     -7.7730599      1.23591      
     46500   1.6332119     -4.8527379      2.4449182     -2.4078197      0.37362637     170            455           -11.361014      10.216684     -1.1443307    
     46550   1.5313405     -4.6969518      2.2924167     -2.4045351      0.37362637     170            455           -11.361014      10.216684     -1.1443307    
     46600   1.5295464     -4.8527379      2.2897309     -2.563007       0.37280702     170            456            14.01941      -12.580913      1.4384969    
     46650   1.5548238     -4.8831113      2.3275713     -2.55554        0.37280702     170            456            14.01941      -12.580913      1.4384969    
     46700   1.4536296     -4.8527379      2.1760836     -2.6766543      0.37199125     170            457            1.9069507      2.8702275      4.7771782    
     46750   1.5017308     -4.9273904      2.2480911     -2.6792993      0.37199125     170            457            1.9069507      2.8702275      4.7771782    
     46800   1.5013793     -4.9210269      2.2475648     -2.6734621      0.37336245     171            458           -34.144497      33.89006      -0.25443668   
     46850   1.4408502     -4.8304137      2.1569528     -2.673461       0.37336245     171            458           -34.144497      33.89006      -0.25443668   
     46900   1.3846253     -4.9390798      2.072784      -2.8662958      0.37472767     172            459           -9.0264522      7.9417255     -1.0847266    
     46950   1.4206321     -4.9929315      2.1266862     -2.8662453      0.37472767     172            459           -9.0264522      7.9417255     -1.0847266    
     47000   1.5346801     -5.0371976      2.2974161     -2.7397815      0.37608696     173            460           -49.058906      49.36434       0.30543371   
     47050   1.5282205     -5.0286806      2.287746      -2.7409346      0.37608696     173            460           -49.058906      49.36434       0.30543371   
     47100   1.417509      -4.9267527      2.1220109     -2.8047418      0.37744035     174            461            55.222458     -54.883125      0.33933332   
     47150   1.4194396     -4.9298394      2.1249011     -2.8049383      0.37744035     174            461            55.222458     -54.883125      0.33933332   
     47200   1.4241985     -5.0179422      2.1320252     -2.8859171      0.37878788     175            462           -45.594764      44.741645     -0.85311867   
     47250   1.388161      -4.961915       2.0780771     -2.8838379      0.37878788     175            462           -45.594764      44.741645     -0.85311867   
     47300   1.5192914     -4.9243774      2.2743792     -2.6499981      0.38012959     176            463            46.782429     -47.165538     -0.38310951   
     47350   1.436187      -4.7988853      2.149972      -2.6489133      0.38012959     176            463            46.782429     -47.165538     -0.38310951   
     47400   1.5088847     -4.9666579      2.2588004     -2.7078575      0.38146552     177            464           -21.14028       22.114556      0.97427656   
     47450   1.4419363     -4.8656099      2.1585787     -2.7070312      0.38146552     177            464           -21.14028       22.114556      0.97427656   
     47500   1.4476824     -4.9825542      2.1671805     -2.8153737      0.3827957      178            465           -7.9481553      7.5302243     -0.41793097   
     47550   1.4596557     -5.0020451      2.1851046     -2.8169405      0.3827957      178            465           -7.9481553      7.5302243     -0.41793097   
     47600   1.4915815     -4.9145367      2.2328975     -2.6816393      0.38412017     179            466            34.008747     -33.667568      0.34117951   
     47650   1.495539      -4.9218328      2.2388219     -2.6830109      0.38412017     179            466            34.008747     -33.667568      0.34117951   
     47700   1.4581002     -4.9169374      2.182776      -2.7341614      0.38543897     180            467           -1.2003239     -0.26733214    -1.467656     
     47750   1.4526158     -4.9059098      2.1745659     -2.7313439      0.38543897     180            467           -1.2003239     -0.26733214    -1.467656     
     47800   1.4881134     -4.9169374      2.2277058     -2.6892316      0.38461538     180            468            1.4080972     -0.35650375     1.0515935    
     47850   1.4442247     -4.8254664      2.1620044     -2.663462       0.38461538     180            468            1.4080972     -0.35650375     1.0515935    
     47900   1.5082758     -4.9169374      2.2578888     -2.6590485      0.38379531     180            469           -35.122186      48.447149      13.324963    
     47950   1.4702343     -4.8570796      2.2009407     -2.6561389      0.38379531     180            469           -35.122186      48.447149      13.324963    
     48000   1.4466552     -4.9169374      2.1656429     -2.7512945      0.38297872     180            470            26.600931     -25.01833       1.5826011    
     48050   1.4193853     -4.8516477      2.1248199     -2.7268278      0.38297872     180            470            26.600931     -25.01833       1.5826011    
     48100   1.4297891     -4.9169374      2.1403943     -2.776543       0.38216561     180            471           -3.1893301      16.492395      13.303065    
     48150   1.4364344     -4.9326256      2.1503423     -2.7822832      0.38216561     180            471           -3.1893301      16.492395      13.303065    
     48200   1.546576      -4.9981552      2.3152243     -2.6829309      0.38347458     181            472           -40.608906      38.91369      -1.6952159    
     48250   1.4762506     -4.8919035      2.2099472     -2.6819563      0.38347458     181            472           -40.608906      38.91369      -1.6952159    
     48300   1.5119695     -4.9193908      2.2634183     -2.6559725      0.38477801     182            473            39.382205     -39.855223     -0.47301814   
     48350   1.5014409     -4.9031388      2.247657      -2.6554819      0.38477801     182            473            39.382205     -39.855223     -0.47301814   
     48400   1.4375272     -4.8494256      2.1519783     -2.6974473      0.38607595     183            474            34.982594     -34.532151      0.45044299   
     48450   1.4648467     -4.8908751      2.1928754     -2.6979996      0.38607595     183            474            34.982594     -34.532151      0.45044299   
     48500   1.5297656     -4.914587       2.2900591     -2.6245279      0.38736842     184            475           -32.580705      33.138099      0.55739405   
     48550   1.4868488     -4.8518613      2.2258127     -2.6260486      0.38736842     184            475           -32.580705      33.138099      0.55739405   
     48600   1.5147198     -4.8775842      2.2675355     -2.6100487      0.38865546     185            476            18.501408     -18.440368      0.061039537  
     48650   1.4789007     -4.8247301      2.2139143     -2.6108158      0.38865546     185            476            18.501408     -18.440368      0.061039537  
     48700   1.4257711     -4.898069       2.1343794     -2.7636896      0.38993711     186            477           -10.242413      9.0160129     -1.2263998    
     48750   1.4468627     -4.9283809      2.1659534     -2.7624274      0.38993711     186            477           -10.242413      9.0160129     -1.2263998    
     48800   1.4477957     -4.9150287      2.1673502     -2.7476785      0.39121339     187            478           -8.4798661      9.3691144      0.88924833   
     48850   1.4549536     -4.9250692      2.1780656     -2.7470036      0.39121339     187            478           -8.4798661      9.3691144      0.88924833   
     48900   1.4961565     -4.9232541      2.2397463     -2.6835078      0.39248434     188            479           -4.1126759      4.0194054     -0.093270468  
     48950   1.499536      -4.9267635      2.2448054     -2.681958       0.39248434     188            479           -4.1126759      4.0194054     -0.093270468  
     49000   1.4071418     -4.9644696      2.1064913     -2.8579784      0.39375        189            480           -20.607776      20.177631     -0.43014491   
     49050   1.4157745     -4.9781501      2.1194145     -2.8587357      0.39375        189            480           -20.607776      20.177631     -0.43014491   
     49100   1.439496      -4.9644696      2.1549255     -2.8095442      0.39293139     189            481           -11.748464      12.13018       0.38171566   
     49150   1.4013467     -4.9062231      2.097816      -2.8084071      0.39293139     189            481           -11.748464      12.13018       0.38171566   
     49200   1.5361315     -4.8962658      2.2995889     -2.596677       0.39419087     190            482            34.101905     -33.530632      0.57127349   
     49250   1.4975381     -4.836904       2.2418145     -2.5950895      0.39419087     190            482            34.101905     -33.530632      0.57127349   
     49300   1.5552677     -4.9228174      2.3282357     -2.5945817      0.39544513     191            483           -13.275786      13.938369      0.66258367   
     49350   1.5306714     -4.8827751      2.2914151     -2.59136        0.39544513     191            483           -13.275786      13.938369      0.66258367   
     49400   1.5129543     -4.9228174      2.2648926     -2.6579248      0.3946281      191            484            38.305433     -37.361807      0.94362658   
     49450   1.485645      -4.8619805      2.2240106     -2.6379699      0.3946281      191            484            38.305433     -37.361807      0.94362658   
     49500   1.4521847     -4.9228174      2.1739205     -2.7488969      0.39381443     191            485            6.272408       2.2987678      8.5711759    
     49550   1.5279599     -5.0372733      2.287356      -2.7499173      0.39381443     191            485            6.272408       2.2987678      8.5711759    
     49600   1.5115514     -4.9007542      2.2627925     -2.6379617      0.39506173     192            486            11.03161      -10.977213      0.054397142  
     49650   1.5006646     -4.8863357      2.2464949     -2.6398407      0.39506173     192            486            11.03161      -10.977213      0.054397142  
     49700   1.431936      -4.920397       2.1436082     -2.7767887      0.3963039      193            487           -9.8213855      8.7865301     -1.0348554    
     49750   1.4438894     -4.9360907      2.1615024     -2.7745883      0.3963039      193            487           -9.8213855      8.7865301     -1.0348554    
     49800   1.4516535     -4.9201589      2.1731253     -2.7470336      0.39754098     194            488            0.11902723     1.166033       1.2850602    
     49850   1.435843      -4.896098       2.149457      -2.746641       0.39754098     194            488            0.11902723     1.166033       1.2850602    
     49900   1.4975474     -4.8795712      2.2418284     -2.6377428      0.39877301     195            489            20.29385      -20.905569     -0.61171878   
     49950   1.4335268     -4.7837432      2.1459897     -2.6377535      0.39877301     195            489            20.29385      -20.905569     -0.61171878   
     50000   1.471117      -4.9902997      2.2022621     -2.7880376      0.4            196            490           -55.364247      55.260997     -0.10325016   
     50050   1.4717691     -4.9908338      2.2032384     -2.7875954      0.4            196            490           -55.364247      55.260997     -0.10325016   
     50100   1.5057948     -4.9077348      2.2541749     -2.6535599      0.401222       197            491            41.282446     -41.291541     -0.0090953079 
     50150   1.509616      -4.9134291      2.2598951     -2.6535341      0.401222       197            491            41.282446     -41.291541     -0.0090953079 
     50200   1.5088048     -4.8964708      2.2586808     -2.63779        0.40243902     198            492            5.6320214     -4.8988943      0.73312709   
     50250   1.5129699     -4.9046711      2.2649159     -2.6397552      0.40243902     198            492            5.6320214     -4.8988943      0.73312709   
     50300   1.4849427     -4.8494361      2.2229593     -2.6264769      0.40365112     199            493            23.517326     -23.983535     -0.46620982   
     50350   1.4907457     -4.8590046      2.2316463     -2.6273583      0.40365112     199            493            23.517326     -23.983535     -0.46620982   
     50400   1.4965237     -4.8756214      2.240296      -2.6353254      0.4048583      200            494           -13.092639      12.8544       -0.23823933   
     50450   1.5242398     -4.9174235      2.2817869     -2.6356366      0.4048583      200            494           -13.092639      12.8544       -0.23823933   
     50500   1.386738      -4.9064202      2.0759468     -2.8304734      0.40606061     201            495           -15.399412      15.030505     -0.36890659   
     50550   1.4200511     -4.9569218      2.1258165     -2.8311053      0.40606061     201            495           -15.399412      15.030505     -0.36890659   
     50600   1.5019333     -4.9820559      2.2483941     -2.7336617      0.40725806     202            496           -37.817829      37.618931     -0.19889864   
     50650   1.4741277     -4.9403675      2.2067692     -2.7335982      0.40725806     202            496           -37.817829      37.618931     -0.19889864   
     50700   1.5140907     -4.8863821      2.2665938     -2.6197883      0.4084507      203            497            47.836883     -47.797326      0.039556355  
     50750   1.5127673     -4.8846266      2.2646126     -2.620014       0.4084507      203            497            47.836883     -47.797326      0.039556355  
     50800   1.4822023     -4.7609334      2.2188569     -2.5420766      0.40963855     204            498            62.724344     -62.935259     -0.21091581   
     50850   1.4780856     -4.7529399      2.2126941     -2.5402457      0.40963855     204            498            62.724344     -62.935259     -0.21091581   
     50900   1.4928201     -4.8301388      2.2347516     -2.5953872      0.41082164     205            499           -34.602687      34.717052      0.11436424   
     50950   1.4986763     -4.8401323      2.2435184     -2.5966139      0.41082164     205            499           -34.602687      34.717052      0.11436424   
     51000   1.4537552     -4.8144282      2.1762716     -2.6381566      0.412          206            500            7.8553214     -8.3977496     -0.54242816   
Loop time of 6.23633 on 4 procs for 50000 steps with 500 atoms

Performance: 3463574.254 tau/day, 8017.533 timesteps/s, 4.009 Matom-step/s
92.0% CPU use with 4 MPI tasks x no OpenMP threads

MPI task timing breakdown:
Section |  min time  |  avg time  |  max time  |%varavg| %total
---------------------------------------------------------------
Pair    | 2.4194     | 2.5447     | 2.6917     |   6.6 | 40.80
Neigh   | 1.7212     | 1.7345     | 1.7431     |   0.7 | 27.81
Comm    | 1.6411     | 1.7915     | 1.8968     |   7.7 | 28.73
Output  | 0.0094507  | 0.010385   | 0.012925   |   1.4 |  0.17
Modify  | 0.071028   | 0.072117   | 0.072927   |   0.3 |  1.16
Other   |            | 0.08313    |            |       |  1.33

Nlocal:            125 ave         132 max         122 min
Histogram: 1 2 0 0 0 0 0 0 0 1
Nghost:         1015.5 ave        1028 max         996 min
Histogram: 1 0 0 0 0 1 0 0 1 1
Neighs:           4735 ave        4897 max        4589 min
Histogram: 1 1 0 0 0 0 0 1 0 1

Total # of neighbors = 18940
Ave neighs/atom = 37.88
Neighbor list builds = 6826
Dangerous builds = 0
Total wall time: 0:00:06
