LAMMPS (12 Jun 2025 - Development - patch_12Jun2025-204-ga1261a54c3-modified)
# 3d Lennard-Jones melt with hybrid mc/md via fix hmc

units           lj
atom_style      atomic

lattice         fcc 0.8442
Lattice spacing in x,y,z = 1.6795962 1.6795962 1.6795962
region          box block 0 5 0 5 0 5
create_box      1 box
Created orthogonal box = (0 0 0) to (8.397981 8.397981 8.397981)
  1 by 2 by 2 MPI processor grid
create_atoms    1 box
Created 500 atoms
  using lattice units in orthogonal box = (0 0 0) to (8.397981 8.397981 8.397981)
  create_atoms CPU = 0.000 seconds
mass            1 1.0

pair_style      lj/cut 2.5
pair_coeff      1 1 1.0 1.0 2.5

neighbor        0.3 bin
neigh_modify    every 2 delay 4 check yes
velocity        all create 3.0 321654 loop geom

fix             1 all nve

thermo          50
run             1000  # equilibrate a bit
Generated 0 of 0 mixed pair_coeff terms from geometric mixing rule
Neighbor list info ...
  update: every = 2 steps, delay = 4 steps, check = yes
  max neighbors/atom: 2000, page size: 100000
  master list distance cutoff = 2.8
  ghost atom cutoff = 2.8
  binsize = 1.4, bins = 6 6 6
  1 neighbor lists, perpetual/occasional/extra = 1 0 0
  (1) pair lj/cut, perpetual
      attributes: half, newton on
      pair build: half/bin/atomonly/newton
      stencil: half/bin/3d
      bin: standard
Per MPI rank memory allocation (min/avg/max) = 3.109 | 3.109 | 3.109 Mbytes
   Step          Temp          E_pair         E_mol          TotEng         Press     
         0   3             -6.7733681      0             -2.2823681     -3.7077825    
        50   1.6542532     -4.7662516      0             -2.2898346      5.7313127    
       100   1.6353666     -4.7366686      0             -2.2885248      5.856866     
       150   1.6554591     -4.7658595      0             -2.2876372      5.8777828    
       200   1.653556      -4.7620199      0             -2.2866467      5.7477385    
       250   1.6325395     -4.7316631      0             -2.2877514      5.9295202    
       300   1.5898436     -4.6660099      0             -2.286014       6.1545142    
       350   1.6881218     -4.8122255      0             -2.2851072      5.5960771    
       400   1.6411399     -4.7465497      0             -2.2897633      5.8110516    
       450   1.6904488     -4.8181142      0             -2.2875123      5.5945433    
       500   1.6318101     -4.7328756      0             -2.2900559      5.8047779    
       550   1.6866656     -4.8110436      0             -2.2861053      5.5595233    
       600   1.6697273     -4.7878837      0             -2.288302       5.6917243    
       650   1.6825496     -4.8079765      0             -2.2891997      5.504302     
       700   1.6209771     -4.714972       0             -2.2883693      5.9413591    
       750   1.6254553     -4.7190049      0             -2.2856983      6.1116248    
       800   1.6071927     -4.6922083      0             -2.2862408      6.1828821    
       850   1.6365993     -4.737851       0             -2.2878618      5.9233248    
       900   1.6897565     -4.8171573      0             -2.2875918      5.5188706    
       950   1.6203188     -4.7149447      0             -2.2893275      6.0618342    
      1000   1.6414492     -4.7440476      0             -2.2867982      5.8337868    
Loop time of 0.107043 on 4 procs for 1000 steps with 500 atoms

Performance: 4035757.804 tau/day, 9342.032 timesteps/s, 4.671 Matom-step/s
90.3% CPU use with 4 MPI tasks x no OpenMP threads

MPI task timing breakdown:
Section |  min time  |  avg time  |  max time  |%varavg| %total
---------------------------------------------------------------
Pair    | 0.035992   | 0.038482   | 0.04288    |   1.4 | 35.95
Neigh   | 0.025861   | 0.027084   | 0.029616   |   0.9 | 25.30
Comm    | 0.031753   | 0.038988   | 0.042779   |   2.2 | 36.42
Output  | 0.0001775  | 0.00019802 | 0.00024796 |   0.0 |  0.18
Modify  | 0.00069198 | 0.00076413 | 0.00094037 |   0.0 |  0.71
Other   |            | 0.001527   |            |       |  1.43

Nlocal:            125 ave         127 max         121 min
Histogram: 1 0 0 0 0 0 0 0 2 1
Nghost:          997.5 ave        1013 max         980 min
Histogram: 1 0 1 0 0 0 0 0 1 1
Neighs:           4750 ave        4930 max        4458 min
Histogram: 1 0 0 0 0 0 1 0 1 1

Total # of neighbors = 19000
Ave neighs/atom = 38
Neighbor list builds = 144
Dangerous builds = 1

fix             2 all hmc 100 6234 1.5 resample yes

#dump           id all atom 50 dump.melt

#dump           2 all image 25 image.*.jpg type type #               axes yes 0.8 0.02 view 60 -30
#dump_modify    2 pad 3

#dump           3 all movie 25 movie.mpg type type #               axes yes 0.8 0.02 view 60 -30
#dump_modify    3 pad 3

thermo_style    custom step temp pe ke etotal f_2 f_2[*]

timestep        0.005
run             50000
Generated 0 of 0 mixed pair_coeff terms from geometric mixing rule
Per MPI rank memory allocation (min/avg/max) = 4.004 | 4.004 | 4.004 Mbytes
   Step          Temp          PotEng         KinEng         TotEng          f_2           f_2[1]         f_2[2]         f_2[3]         f_2[4]         f_2[5]    
      1000   1.4604188     -4.7440476      2.186247      -2.5578006      0              0              0              0              0              0            
      1050   1.5031932     -4.8086566      2.2502802     -2.5583764      0              0              0              0              0              0            
      1100   1.5451595     -4.8280725      2.3131038     -2.5149687      1              1              1             -42.012448      41.613545     -0.39890243   
      1150   1.6123874     -4.9283643      2.4137439     -2.5146205      1              1              1             -42.012448      41.613545     -0.39890243   
      1200   1.5228849     -4.8015814      2.2797587     -2.5218227      1              2              2              13.245535     -12.315906      0.92962945   
      1250   1.5842674     -4.8958612      2.3716482     -2.5242129      1              2              2              13.245535     -12.315906      0.92962945   
      1300   1.5358901     -4.8559477      2.2992275     -2.5567203      1              3              3             -27.183157      27.249227      0.066070122  
      1350   1.5121657     -4.8201133      2.263712      -2.5564013      1              3              3             -27.183157      27.249227      0.066070122  
      1400   1.4717848     -4.8019847      2.2032619     -2.5987228      1              4              4              26.981533     -26.898312      0.083221149  
      1450   1.5411624     -4.9086592      2.3071202     -2.601539       1              4              4              26.981533     -26.898312      0.083221149  
      1500   1.4403268     -4.8445692      2.1561692     -2.6884         1              5              5             -21.292234      19.617704     -1.6745297    
      1550   1.410203      -4.8002324      2.1110738     -2.6891585      1              5              5             -21.292234      19.617704     -1.6745297    
      1600   1.4357162     -4.8847477      2.1492671     -2.7354806      1              6              6             -20.089251      20.876526      0.78727484   
      1650   1.4174109     -4.8543003      2.1218641     -2.7324362      1              6              6             -20.089251      20.876526      0.78727484   
      1700   1.4793588     -4.8748755      2.2146001     -2.6602755      1              7              7              4.9360645     -4.26699        0.66907457   
      1750   1.4227797     -4.7909774      2.1299013     -2.6610762      1              7              7              4.9360645     -4.26699        0.66907457   
      1800   1.4966875     -4.8748755      2.2405411     -2.6343344      0.875          7              8              25.608128     -25.414359      0.1937681    
      1850   1.5248088     -4.8990036      2.2826388     -2.6163648      0.875          7              8              25.608128     -25.414359      0.1937681    
      1900   1.4579174     -4.8748755      2.1825023     -2.6923732      0.77777778     7              9             -17.14052       27.183125      10.042605    
      1950   1.4603306     -4.8832341      2.1861149     -2.6971193      0.77777778     7              9             -17.14052       27.183125      10.042605    
      2000   1.4466349     -4.8880964      2.1656124     -2.722484       0.8            8              10            -6.6104305      4.8629716     -1.7474589    
      2050   1.463015      -4.9121234      2.1901335     -2.7219899      0.8            8              10            -6.6104305      4.8629716     -1.7474589    
      2100   1.4717411     -4.9016086      2.2031965     -2.6984122      0.81818182     9              11            -6.7561233      7.0011121      0.24498878   
      2150   1.5158793     -4.9680959      2.2692713     -2.6988246      0.81818182     9              11            -6.7561233      7.0011121      0.24498878   
      2200   1.5197579     -4.9810649      2.2750776     -2.7059873      0.83333333     10             12            -39.728143      39.141852     -0.58629024   
      2250   1.4233759     -4.8344611      2.1307937     -2.7036674      0.83333333     10             12            -39.728143      39.141852     -0.58629024   
      2300   1.5187841     -4.9810649      2.2736197     -2.7074452      0.76923077     10             13             32.963669     -32.156959      0.80671076   
      2350   1.4428356     -4.8657692      2.1599248     -2.7058444      0.76923077     10             13             32.963669     -32.156959      0.80671076   
      2400   1.490078      -4.9810649      2.2306468     -2.7504181      0.71428571     10             14             47.348099     -47.084679      0.26341998   
      2450   1.3961455     -4.8305534      2.0900298     -2.7405237      0.71428571     10             14             47.348099     -47.084679      0.26341998   
      2500   1.6009956     -4.9810649      2.3966904     -2.5843746      0.66666667     10             15             24.745967     -20.562895      4.1830715    
      2550   1.4445573     -4.7424348      2.1625023     -2.5799325      0.66666667     10             15             24.745967     -20.562895      4.1830715    
      2600   1.4300412     -4.8802293      2.1407716     -2.7394577      0.6875         11             16             50.417803     -48.155554      2.2622492    
      2650   1.4430363     -4.8989502      2.1602254     -2.7387248      0.6875         11             16             50.417803     -48.155554      2.2622492    
      2700   1.482166      -4.8709272      2.2188024     -2.6521248      0.70588235     12             17             4.6510322     -4.2178187      0.43321349   
      2750   1.4370415     -4.8070754      2.1512511     -2.6558242      0.70588235     12             17             4.6510322     -4.2178187      0.43321349   
      2800   1.5357525     -4.9262204      2.2990215     -2.6271989      0.72222222     13             18            -27.646559      25.70752      -1.9390392    
      2850   1.5424693     -4.9335418      2.3090766     -2.6244653      0.72222222     13             18            -27.646559      25.70752      -1.9390392    
      2900   1.5237235     -4.9262204      2.281014      -2.6452064      0.68421053     13             19             29.164537     -27.743419      1.4211178    
      2950   1.5583778     -4.9705811      2.3328915     -2.6376896      0.68421053     13             19             29.164537     -27.743419      1.4211178    
      3000   1.5219575     -4.9262204      2.2783703     -2.64785        0.65           13             20             64.991083     -61.186932      3.8041504    
      3050   1.5356503     -4.9258172      2.2988686     -2.6269486      0.65           13             20             64.991083     -61.186932      3.8041504    
      3100   1.4991575     -4.9262204      2.2442388     -2.6819816      0.61904762     13             21            -14.804589      24.006624      9.2020351    
      3150   1.4993716     -4.8955803      2.2445592     -2.6510211      0.61904762     13             21            -14.804589      24.006624      9.2020351    
      3200   1.4913372     -4.9262204      2.2325318     -2.6936886      0.59090909     13             22            -33.07329       48.611738      15.538448    
      3250   1.4814043     -4.8907314      2.2176623     -2.6730691      0.59090909     13             22            -33.07329       48.611738      15.538448    
      3300   1.5827546     -4.9262204      2.3693836     -2.5568367      0.56521739     13             23            -37.814317      48.693557      10.879239    
      3350   1.5536335     -4.8676752      2.3257893     -2.5418858      0.56521739     13             23            -37.814317      48.693557      10.879239    
      3400   1.4681623     -4.9262204      2.197839      -2.7283814      0.54166667     13             24             51.092381     -43.430723      7.6616578    
      3450   1.5053622     -4.970933       2.2535271     -2.7174058      0.54166667     13             24             51.092381     -43.430723      7.6616578    
      3500   1.6348094     -4.9262204      2.4473096     -2.4789108      0.52           13             25            -25.411948      30.495494      5.083546     
      3550   1.5834091     -4.8395156      2.3703634     -2.4691521      0.52           13             25            -25.411948      30.495494      5.083546     
      3600   1.5044822     -4.9262204      2.2522099     -2.6740105      0.5            13             26             61.990818     -56.31406       5.6767588    
      3650   1.5271727     -4.9407937      2.2861776     -2.6546161      0.5            13             26             61.990818     -56.31406       5.6767588    
      3700   1.4776745     -4.9262204      2.2120787     -2.7141417      0.48148148     13             27             13.726595     -3.5147714      10.211823    
      3750   1.4446044     -4.862395       2.1625729     -2.6998221      0.48148148     13             27             13.726595     -3.5147714      10.211823    
      3800   1.5562896     -4.9262204      2.3297655     -2.5964548      0.46428571     13             28             16.534046     -9.274404       7.2596417    
      3850   1.5452136     -4.907332       2.3131848     -2.5941472      0.46428571     13             28             16.534046     -9.274404       7.2596417    
      3900   1.4664075     -4.9262204      2.1952121     -2.7310083      0.44827586     13             29             85.678548     -83.242962      2.4355853    
      3950   1.4515946     -4.8769108      2.1730371     -2.7038737      0.44827586     13             29             85.678548     -83.242962      2.4355853    
      4000   1.4756184     -4.9262204      2.2090008     -2.7172196      0.43333333     13             30             8.289958       5.5406263      13.830584    
      4050   1.4815741     -4.9097997      2.2179165     -2.6918832      0.43333333     13             30             8.289958       5.5406263      13.830584    
      4100   1.4131254     -4.9262204      2.1154487     -2.8107717      0.41935484     13             31             27.266453     -13.492648      13.773804    
      4150   1.4393487     -4.9487106      2.154705      -2.7940057      0.41935484     13             31             27.266453     -13.492648      13.773804    
      4200   1.4962032     -4.9262204      2.2398162     -2.6864042      0.40625        13             32            -26.834433      35.302097      8.4676637    
      4250   1.4869898     -4.9071696      2.2260238     -2.6811458      0.40625        13             32            -26.834433      35.302097      8.4676637    
      4300   1.5261612     -4.9262204      2.2846633     -2.6415571      0.39393939     13             33             2.4084796      1.0354289      3.4439085    
      4350   1.459815      -4.8118063      2.185343      -2.6264633      0.39393939     13             33             2.4084796      1.0354289      3.4439085    
      4400   1.5628599     -4.9262204      2.3396013     -2.5866191      0.38235294     13             34             3.4397985      3.0036394      6.4434379    
      4450   1.5305912     -4.8484982      2.2912951     -2.5572031      0.38235294     13             34             3.4397985      3.0036394      6.4434379    
      4500   1.5107393     -4.9262204      2.2615768     -2.6646436      0.37142857     13             35             56.192034     -40.350412      15.841622    
      4550   1.4766487     -4.8612614      2.2105431     -2.6507183      0.37142857     13             35             56.192034     -40.350412      15.841622    
      4600   1.4826283     -4.9262204      2.2194946     -2.7067258      0.36111111     13             36             11.496972     -4.2033576      7.2936144    
      4650   1.5193577     -4.979566       2.2744785     -2.7050875      0.36111111     13             36             11.496972     -4.2033576      7.2936144    
      4700   1.4776836     -4.9147589      2.2120923     -2.7026666      0.37837838     14             37             5.7307379     -4.9455267      0.7852112    
      4750   1.4382563     -4.8554977      2.1530697     -2.702428       0.37837838     14             37             5.7307379     -4.9455267      0.7852112    
      4800   1.5074261     -4.9179107      2.2566169     -2.6612939      0.39473684     15             38            -1.5759235      1.7749985      0.19907508   
      4850   1.4953486     -4.9002673      2.2385369     -2.6617305      0.39473684     15             38            -1.5759235      1.7749985      0.19907508   
      4900   1.5527488     -4.9179107      2.3244649     -2.5934458      0.38461538     15             39             32.049093     -31.789373      0.25972069   
      4950   1.4941512     -4.8286052      2.2367444     -2.5918608      0.38461538     15             39             32.049093     -31.789373      0.25972069   
      5000   1.4020149     -4.9179107      2.0988163     -2.8190945      0.375          15             40             23.92958      -23.428461      0.50111878   
      5050   1.4404082     -4.9584294      2.156291      -2.8021384      0.375          15             40             23.92958      -23.428461      0.50111878   
      5100   1.3606483     -4.9179107      2.0368906     -2.8810202      0.36585366     15             41            -12.217062      20.837738      8.620676     
      5150   1.3894447     -4.9349564      2.0799988     -2.8549577      0.36585366     15             41            -12.217062      20.837738      8.620676     
      5200   1.6360734     -4.9179107      2.4492019     -2.4687089      0.35714286     15             42            -31.006115      43.855266      12.84915     
      5250   1.6005521     -4.8559808      2.3960265     -2.4599543      0.35714286     15             42            -31.006115      43.855266      12.84915     
      5300   1.4868652     -4.9179107      2.2258372     -2.6920735      0.34883721     15             43             62.814354     -58.979995      3.8343589    
      5350   1.4926976     -4.9163004      2.2345683     -2.6817321      0.34883721     15             43             62.814354     -58.979995      3.8343589    
      5400   1.536581      -4.9179107      2.3002617     -2.617649       0.34090909     15             44             44.839194     -39.688648      5.1505461    
      5450   1.5488584     -4.9147427      2.3186411     -2.5961016      0.34090909     15             44             44.839194     -39.688648      5.1505461    
      5500   1.5561226     -4.9179107      2.3295156     -2.5883952      0.33333333     15             45             57.451154     -47.206581      10.244572    
      5550   1.525112      -4.8524386      2.2830927     -2.5693459      0.33333333     15             45             57.451154     -47.206581      10.244572    
      5600   1.4273624     -4.9179107      2.1367616     -2.7811492      0.32608696     15             46             36.143854     -25.983032      10.160823    
      5650   1.3998992     -4.8551489      2.0956491     -2.7594998      0.32608696     15             46             36.143854     -25.983032      10.160823    
      5700   1.5256885     -4.9179107      2.2839557     -2.6339551      0.31914894     15             47             2.7347715      9.6419483      12.37672     
      5750   1.4458737     -4.7869027      2.1644729     -2.6224298      0.31914894     15             47             2.7347715      9.6419483      12.37672     
      5800   1.6044106     -4.9179107      2.4018026     -2.5161081      0.3125         15             48             78.771051     -73.316068      5.4549827    
      5850   1.5197924     -4.781187       2.2751293     -2.5060578      0.3125         15             48             78.771051     -73.316068      5.4549827    
      5900   1.4601646     -4.9179107      2.1858664     -2.7320443      0.30612245     15             49             30.826665     -26.082899      4.7437657    
      5950   1.4134974     -4.8542358      2.1160056     -2.7382302      0.30612245     15             49             30.826665     -26.082899      4.7437657    
      6000   1.5318375     -4.9189833      2.2931607     -2.6258226      0.32           16             50            -0.53626787    -2.3928446     -2.9291124    
      6050   1.4528147     -4.799516       2.1748636     -2.6246524      0.32           16             50            -0.53626787    -2.3928446     -2.9291124    
      6100   1.4838244     -4.8813617      2.2212851     -2.6600767      0.33333333     17             51             18.81078      -18.975956     -0.16517585   
      6150   1.4215203     -4.784969       2.1280159     -2.6569532      0.33333333     17             51             18.81078      -18.975956     -0.16517585   
      6200   1.559063      -4.8813617      2.3339173     -2.5474444      0.32692308     17             52             21.4757       -20.393405      1.0822958    
      6250   1.5113843     -4.7950405      2.2625423     -2.5324982      0.32692308     17             52             21.4757       -20.393405      1.0822958    
      6300   1.4252098     -4.8813617      2.133539      -2.7478227      0.32075472     17             53             33.276393     -24.8122        8.4641933    
      6350   1.4520336     -4.9202446      2.1736943     -2.7465503      0.32075472     17             53             33.276393     -24.8122        8.4641933    
      6400   1.4991316     -4.8813617      2.2442        -2.6371617      0.31481481     17             54            -11.598703      12.883091      1.2843878    
      6450   1.5438386     -4.9206114      2.3111264     -2.609485       0.31481481     17             54            -11.598703      12.883091      1.2843878    
      6500   1.4689666     -4.8813617      2.1990431     -2.6823186      0.30909091     17             55            -16.43514       29.959426      13.524285    
      6550   1.4902099     -4.9140716      2.2308442     -2.6832274      0.30909091     17             55            -16.43514       29.959426      13.524285    
      6600   1.4863805     -4.9256795      2.2251117     -2.7005678      0.32142857     18             56            -22.15887       20.852038     -1.3068314    
      6650   1.4862067     -4.9240479      2.2248514     -2.6991965      0.32142857     18             56            -22.15887       20.852038     -1.3068314    
      6700   1.4488363     -4.968662       2.1689079     -2.799754       0.33333333     19             57            -21.491254      22.687125      1.195871     
      6750   1.3732323     -4.8552028      2.0557288     -2.799474       0.33333333     19             57            -21.491254      22.687125      1.195871     
      6800   1.6048725     -4.89611        2.4024942     -2.4936158      0.34482759     20             58             36.276001     -36.102177      0.1738244    
      6850   1.5246546     -4.7790411      2.2824079     -2.4966332      0.34482759     20             58             36.276001     -36.102177      0.1738244    
      6900   1.4268791     -4.8487584      2.136038      -2.7127204      0.3559322      21             59             23.675787     -26.032011     -2.3562236    
      6950   1.4330539     -4.8561498      2.1452817     -2.7108681      0.3559322      21             59             23.675787     -26.032011     -2.3562236    
      7000   1.5509608     -4.8487584      2.3217884     -2.52697        0.35           21             60             7.1157587     -5.4190221      1.6967367    
      7050   1.5184503     -4.7931364      2.2731201     -2.5200163      0.35           21             60             7.1157587     -5.4190221      1.6967367    
      7100   1.4428176     -4.8487584      2.1598979     -2.6888604      0.3442623      21             61             8.2123767     -2.9240563      5.2883205    
      7150   1.4800664     -4.8884871      2.2156594     -2.6728277      0.3442623      21             61             8.2123767     -2.9240563      5.2883205    
      7200   1.427574      -4.8487584      2.1370782     -2.7116802      0.33870968     21             62            -6.7617778      14.713021      7.9512435    
      7250   1.4710939     -4.9062134      2.2022276     -2.7039858      0.33870968     21             62            -6.7617778      14.713021      7.9512435    
      7300   1.5132987     -4.8487584      2.2654081     -2.5833503      0.33333333     21             63            -19.912702      22.738784      2.8260815    
      7350   1.5519174     -4.8951813      2.3232204     -2.5719609      0.33333333     21             63            -19.912702      22.738784      2.8260815    
      7400   1.4675404     -4.8487584      2.196908      -2.6518504      0.328125       21             64             35.611035     -29.280567      6.3304679    
      7450   1.5856981     -5.0064887      2.3737901     -2.6326986      0.328125       21             64             35.611035     -29.280567      6.3304679    
      7500   1.4358829     -4.8487584      2.1495167     -2.6992417      0.32307692     21             65             33.21784      -21.830365      11.387475    
      7550   1.4503109     -4.8584762      2.1711155     -2.6873608      0.32307692     21             65             33.21784      -21.830365      11.387475    
      7600   1.4705        -4.8487584      2.2013386     -2.6474198      0.31818182     21             66            -26.989126      33.654023      6.6648965    
      7650   1.5449553     -4.9515979      2.312798      -2.6387999      0.31818182     21             66            -26.989126      33.654023      6.6648965    
      7700   1.5169323     -4.8487584      2.2708476     -2.5779108      0.31343284     21             67             22.769106     -18.176929      4.5921768    
      7750   1.5641852     -4.9198252      2.3415853     -2.5782399      0.31343284     21             67             22.769106     -18.176929      4.5921768    
      7800   1.5715139     -4.7639747      2.3525564     -2.4114183      0.32352941     22             68             42.391842     -42.64968      -0.25783893   
      7850   1.5916161     -4.7929132      2.3826493     -2.4102639      0.32352941     22             68             42.391842     -42.64968      -0.25783893   
      7900   1.5381213     -4.786029       2.3025676     -2.4834614      0.33333333     23             69            -11.027137      11.348275      0.32113774   
      7950   1.5486794     -4.8025872      2.3183731     -2.4842141      0.33333333     23             69            -11.027137      11.348275      0.32113774   
      8000   1.5015479     -4.8263424      2.2478172     -2.5785252      0.34285714     24             70            -20.156708      20.153742     -0.0029656603 
      8050   1.5601456     -4.9156437      2.3355379     -2.5801058      0.34285714     24             70            -20.156708      20.153742     -0.0029656603 
      8100   1.4323784     -4.8095598      2.1442704     -2.6652893      0.35211268     25             71             8.3913139     -8.4681965     -0.076882565  
      8150   1.5112062     -4.9267279      2.2622757     -2.6644522      0.35211268     25             71             8.3913139     -8.4681965     -0.076882565  
      8200   1.4550517     -4.8221846      2.1782125     -2.6439721      0.36111111     26             72            -6.3123992      6.1058977     -0.20650158   
      8250   1.5462251     -4.9577921      2.314699      -2.6430931      0.36111111     26             72            -6.3123992      6.1058977     -0.20650158   
      8300   1.4552804     -4.8177157      2.1785548     -2.6391609      0.36986301     27             73             2.2344413     -2.2811776     -0.046736311  
      8350   1.4993079     -4.8825292      2.2444639     -2.6380653      0.36986301     27             73             2.2344413     -2.2811776     -0.046736311  
      8400   1.4758258     -4.9266541      2.2093112     -2.717343       0.37837838     28             74            -54.469227      54.837739      0.36851227   
      8450   1.4453938     -4.8826263      2.1637545     -2.7188717      0.37837838     28             74            -54.469227      54.837739      0.36851227   
      8500   1.5329445     -4.8854492      2.2948179     -2.5906314      0.38666667     29             75             20.602443     -20.481718      0.12072452   
      8550   1.5016846     -4.8406812      2.2480219     -2.5926594      0.38666667     29             75             20.602443     -20.481718      0.12072452   
      8600   1.4957502     -4.9375947      2.239138      -2.6984567      0.39473684     30             76            -26.072738      25.029273     -1.043465     
      8650   1.4108369     -4.8087931      2.1120229     -2.6967702      0.39473684     30             76            -26.072738      25.029273     -1.043465     
      8700   1.4971347     -4.9142542      2.2412107     -2.6730435      0.4025974      31             77             11.670258     -10.775889      0.89436863   
      8750   1.4694653     -4.8746266      2.1997896     -2.674837       0.4025974      31             77             11.670258     -10.775889      0.89436863   
      8800   1.4136375     -4.8437906      2.1162154     -2.7275752      0.41025641     32             78             35.231812     -35.982165     -0.75035295   
      8850   1.4665261     -4.923051       2.1953896     -2.7276614      0.41025641     32             78             35.231812     -35.982165     -0.75035295   
      8900   1.5530736     -4.9872025      2.3249512     -2.6622513      0.41772152     33             79            -71.705954      71.064009     -0.64194533   
      8950   1.4849541     -4.8836652      2.2229763     -2.6606889      0.41772152     33             79            -71.705954      71.064009     -0.64194533   
      9000   1.4838847     -4.9736426      2.2213754     -2.7522672      0.425          34             80             6.7799611     -6.1361658      0.64379529   
      9050   1.4918587     -4.9825844      2.2333125     -2.749272       0.425          34             80             6.7799611     -6.1361658      0.64379529   
      9100   1.5529909     -4.9736426      2.3248274     -2.6488152      0.41975309     34             81             67.169808     -66.518408      0.65140085   
      9150   1.4713721     -4.8587473      2.2026441     -2.6561032      0.41975309     34             81             67.169808     -66.518408      0.65140085   
      9200   1.4981355     -4.8154712      2.2427088     -2.5727625      0.42682927     35             82             79.085664     -81.819615     -2.7339509    
      9250   1.5774803     -4.9345786      2.3614881     -2.5730905      0.42682927     35             82             79.085664     -81.819615     -2.7339509    
      9300   1.5320277     -4.8595485      2.2934455     -2.566103       0.43373494     36             83            -22.038613      21.629734     -0.40887919   
      9350   1.500319      -4.8125047      2.2459776     -2.5665271      0.43373494     36             83            -22.038613      21.629734     -0.40887919   
      9400   1.5448213     -4.8825395      2.3125975     -2.5699419      0.44047619     37             84            -11.495496      10.888536     -0.6069604    
      9450   1.5416687     -4.8778151      2.3078781     -2.569937       0.44047619     37             84            -11.495496      10.888536     -0.6069604    
      9500   1.5578414     -4.8825395      2.3320886     -2.5504509      0.43529412     37             85             40.835334     -39.641954      1.19338      
      9550   1.552375      -4.8635241      2.3239054     -2.5396187      0.43529412     37             85             40.835334     -39.641954      1.19338      
      9600   1.5632075     -4.8825395      2.3401217     -2.5424178      0.43023256     37             86             20.868277     -16.074188      4.7940897    
      9650   1.5676661     -4.8629809      2.3467961     -2.5161848      0.43023256     37             86             20.868277     -16.074188      4.7940897    
      9700   1.5259298     -4.8825395      2.2843169     -2.5982225      0.42528736     37             87             52.376997     -37.816768      14.560229    
      9750   1.4912482     -4.8285216      2.2323986     -2.596123       0.42528736     37             87             52.376997     -37.816768      14.560229    
      9800   1.4304665     -4.8825395      2.1414083     -2.7411312      0.42045455     37             88             42.124245     -40.66385       1.4603949    
      9850   1.4983807     -4.9725285      2.243076      -2.7294525      0.42045455     37             88             42.124245     -40.66385       1.4603949    
      9900   1.4483526     -4.8825395      2.1681838     -2.7143556      0.41573034     37             89            -9.051104       14.512793      5.4616885    
      9950   1.4552674     -4.8828365      2.1785353     -2.7043012      0.41573034     37             89            -9.051104       14.512793      5.4616885    
     10000   1.5163252     -4.8825395      2.2699388     -2.6126007      0.41111111     37             90             18.113667     -12.657825      5.4558417    
     10050   1.4850145     -4.8288825      2.2230667     -2.6058157      0.41111111     37             90             18.113667     -12.657825      5.4558417    
     10100   1.5062685     -4.8825395      2.2548839     -2.6276555      0.40659341     37             91            -14.401867      19.027301      4.6254347    
     10150   1.5424972     -4.9243709      2.3091183     -2.6152526      0.40659341     37             91            -14.401867      19.027301      4.6254347    
     10200   1.4251067     -4.8825395      2.1333847     -2.7491548      0.40217391     37             92            -8.7433623      15.947577      7.2042146    
     10250   1.4552426     -4.919415       2.1784981     -2.7409169      0.40217391     37             92            -8.7433623      15.947577      7.2042146    
     10300   1.5296112     -4.8825395      2.289828      -2.5927115      0.39784946     37             93             0.12851319     3.7029309      3.8314441    
     10350   1.5629912     -4.9227445      2.3397978     -2.5829467      0.39784946     37             93             0.12851319     3.7029309      3.8314441    
     10400   1.4318557     -4.8825395      2.143488      -2.7390515      0.39361702     37             94             70.710634     -64.35015       6.3604837    
     10450   1.4897062     -4.9611558      2.2300902     -2.7310656      0.39361702     37             94             70.710634     -64.35015       6.3604837    
     10500   1.5094467     -4.8825395      2.2596417     -2.6228978      0.38947368     37             95            -43.522546      48.55106       5.0285149    
     10550   1.5291036     -4.899465       2.289068      -2.6103969      0.38947368     37             95            -43.522546      48.55106       5.0285149    
     10600   1.4935758     -4.8825395      2.235883      -2.6466565      0.38541667     37             96             43.625533     -37.678563      5.9469707    
     10650   1.5359455     -4.9396307      2.2993104     -2.6403203      0.38541667     37             96             43.625533     -37.678563      5.9469707    
     10700   1.4795229     -4.8716178      2.2148458     -2.6567719      0.39175258     38             97             5.4608535     -2.0205419      3.4403117    
     10750   1.4788888     -4.8686037      2.2138965     -2.6547072      0.39175258     38             97             5.4608535     -2.0205419      3.4403117    
     10800   1.4594346     -4.9676207      2.1847737     -2.782847       0.39795918     39             98            -48.001465      48.988806      0.98734092   
     10850   1.3976006     -4.8745985      2.092208      -2.7823905      0.39795918     39             98            -48.001465      48.988806      0.98734092   
     10900   1.5618911     -4.9604804      2.3381509     -2.6223294      0.4040404      40             99             3.5701579     -4.2714226     -0.70126466   
     10950   1.4656533     -4.8160245      2.194083      -2.6219415      0.4040404      40             99             3.5701579     -4.2714226     -0.70126466   
     11000   1.5354951     -4.9767579      2.2986362     -2.6781218      0.41           41             100           -8.1387853      8.8813673      0.74258202   
     11050   1.4845702     -4.899814       2.2224016     -2.6774123      0.41           41             100           -8.1387853      8.8813673      0.74258202   
     11100   1.4823719     -4.884694       2.2191107     -2.6655834      0.41584158     42             101            46.03195      -46.583088     -0.55113793   
     11150   1.4644477     -4.8587125      2.1922781     -2.6664344      0.41584158     42             101            46.03195      -46.583088     -0.55113793   
     11200   1.4679596     -4.8226882      2.1975355     -2.6251526      0.42156863     43             102            31.002939     -30.228188      0.77475114   
     11250   1.5280269     -4.9142616      2.2874563     -2.6268054      0.42156863     43             102            31.002939     -30.228188      0.77475114   
     11300   1.5854261     -4.8222611      2.3733829     -2.4488782      0.42718447     44             103            0.21355011    -1.3019208     -1.0883707    
     11350   1.5274299     -4.7323754      2.2865626     -2.4458128      0.42718447     44             103            0.21355011    -1.3019208     -1.0883707    
     11400   1.5666865     -4.8222611      2.3453296     -2.4769314      0.42307692     44             104            10.006364     -8.3706033      1.6357607    
     11450   1.5136775     -4.7287633      2.2659753     -2.462788       0.42307692     44             104            10.006364     -8.3706033      1.6357607    
     11500   1.5324657     -4.8222611      2.2941011     -2.5281599      0.41904762     44             105           -20.105182      27.732474      7.6272919    
     11550   1.5558106     -4.8332696      2.3290485     -2.504221       0.41904762     44             105           -20.105182      27.732474      7.6272919    
     11600   1.5537238     -4.8222611      2.3259245     -2.4963365      0.41509434     44             106           -22.951236      36.038435      13.087199    
     11650   1.5340275     -4.7772479      2.2964392     -2.4808087      0.41509434     44             106           -22.951236      36.038435      13.087199    
     11700   1.4815463     -4.8222611      2.2178749     -2.6043862      0.41121495     44             107            43.70279      -36.572627      7.1301631    
     11750   1.5372944     -4.8964707      2.3013297     -2.595141       0.41121495     44             107            43.70279      -36.572627      7.1301631    
     11800   1.5042964     -4.8222611      2.2519318     -2.5703293      0.40740741     44             108           -28.768051      33.812189      5.0441384    
     11850   1.5293308     -4.8481227      2.2894082     -2.5587145      0.40740741     44             108           -28.768051      33.812189      5.0441384    
     11900   1.4102954     -4.8222611      2.1112122     -2.7110489      0.40366972     44             109           -39.18758       44.69132       5.5037395    
     11950   1.4671613     -4.9064239      2.1963405     -2.7100834      0.40366972     44             109           -39.18758       44.69132       5.5037395    
     12000   1.521236      -4.8222611      2.2772903     -2.5449708      0.4            44             110            2.7432308     -0.9451132      1.7981176    
     12050   1.5419192     -4.8414529      2.308253      -2.5331999      0.4            44             110            2.7432308     -0.9451132      1.7981176    
     12100   1.5108453     -4.8222611      2.2617354     -2.5605257      0.3963964      44             111           -14.283246      20.783458      6.5002121    
     12150   1.482933      -4.7677056      2.2199507     -2.5477549      0.3963964      44             111           -14.283246      20.783458      6.5002121    
     12200   1.4502723     -4.8222611      2.1710576     -2.6512035      0.39285714     44             112           -4.2844326      9.6279343      5.3435017    
     12250   1.5681575     -4.9903401      2.3475318     -2.6428083      0.39285714     44             112           -4.2844326      9.6279343      5.3435017    
     12300   1.5166173     -4.8222611      2.2703761     -2.551885       0.38938053     44             113           -0.24863706     4.846072       4.597435     
     12350   1.5450857     -4.8479691      2.3129933     -2.5349759      0.38938053     44             113           -0.24863706     4.846072       4.597435     
     12400   1.4324729     -4.8222611      2.1444119     -2.6778492      0.38596491     44             114            6.5516675      2.2071731      8.7588406    
     12450   1.4709243     -4.8729247      2.2019737     -2.6709509      0.38596491     44             114            6.5516675      2.2071731      8.7588406    
     12500   1.4685277     -4.8222611      2.1983859     -2.6238751      0.3826087      44             115           -62.328687      66.044017      3.7153303    
     12550   1.5040611     -4.8597952      2.2515794     -2.6082157      0.3826087      44             115           -62.328687      66.044017      3.7153303    
     12600   1.4658389     -4.8222611      2.1943608     -2.6279002      0.37931034     44             116           -55.899346      64.3976        8.4982536    
     12650   1.5065951     -4.8581643      2.2553728     -2.6027914      0.37931034     44             116           -55.899346      64.3976        8.4982536    
     12700   1.4628893     -4.8222611      2.1899453     -2.6323158      0.37606838     44             117           -0.90742729     14.41358       13.506153    
     12750   1.5256238     -4.9058736      2.2838588     -2.6220148      0.37606838     44             117           -0.90742729     14.41358       13.506153    
     12800   1.4931594     -4.9087461      2.2352596     -2.6734865      0.38135593     45             118           -43.242515      47.868413      4.6258984    
     12850   1.5000462     -4.9206836      2.2455691     -2.6751145      0.38135593     45             118           -43.242515      47.868413      4.6258984    
     12900   1.4643067     -4.898135       2.1920672     -2.7060678      0.38655462     46             119            5.3055427     -5.3379882     -0.032445467  
     12950   1.4733418     -4.9093039      2.2055927     -2.7037112      0.38655462     46             119            5.3055427     -5.3379882     -0.032445467  
     13000   1.4129424     -4.898135       2.1151748     -2.7829602      0.38333333     46             120            1.7214657     -0.33907881     1.3823869    
     13050   1.4467605     -4.9238802      2.1658004     -2.7580798      0.38333333     46             120            1.7214657     -0.33907881     1.3823869    
     13100   1.525535      -4.898135       2.2837259     -2.6144091      0.38016529     46             121           -18.491934      29.921096      11.429162    
     13150   1.5973788     -4.9912914      2.3912761     -2.6000153      0.38016529     46             121           -18.491934      29.921096      11.429162    
     13200   1.518388      -4.898135       2.2730269     -2.6251081      0.37704918     46             122           -21.483638      27.990335      6.5066966    
     13250   1.4867926     -4.8342603      2.2257285     -2.6085317      0.37704918     46             122           -21.483638      27.990335      6.5066966    
     13300   1.5415759     -4.898135       2.3077391     -2.5903959      0.37398374     46             123            6.398862       2.2179415      8.6168035    
     13350   1.5355773     -4.8803433      2.2987592     -2.5815842      0.37398374     46             123            6.398862       2.2179415      8.6168035    
     13400   1.5488899     -4.898135       2.3186883     -2.5794467      0.37096774     46             124            47.702524     -42.753519      4.9490047    
     13450   1.4968898     -4.8198575      2.240844      -2.5790134      0.37096774     46             124            47.702524     -42.753519      4.9490047    
     13500   1.5233212     -4.8366313      2.2804118     -2.5562195      0.376          47             125            30.751843     -31.236391     -0.48454818   
     13550   1.5240795     -4.835929       2.281547      -2.5543821      0.376          47             125            30.751843     -31.236391     -0.48454818   
     13600   1.4804868     -4.8366313      2.2162887     -2.6203426      0.37301587     47             126           -9.0115737      10.500505      1.4889314    
     13650   1.5573261     -4.9530544      2.3313172     -2.6217372      0.37301587     47             126           -9.0115737      10.500505      1.4889314    
     13700   1.5769184     -4.890653       2.3606468     -2.5300062      0.37795276     48             127           -27.010841      26.459127     -0.55171406   
     13750   1.5035753     -4.7791722      2.2508523     -2.52832        0.37795276     48             127           -27.010841      26.459127     -0.55171406   
     13800   1.4726297     -4.890653       2.2045266     -2.6861264      0.375          48             128            69.165801     -67.997038      1.1687628    
     13850   1.5240944     -4.9670814      2.2815694     -2.685512       0.375          48             128            69.165801     -67.997038      1.1687628    
     13900   1.5886839     -4.9945314      2.3782598     -2.6162716      0.37984496     49             129           -51.939194      51.891543     -0.04765125   
     13950   1.5347921     -4.9154164      2.2975838     -2.6178326      0.37984496     49             129           -51.939194      51.891543     -0.04765125   
     14000   1.5450236     -4.8561523      2.3129003     -2.543252       0.38461538     50             130            69.189537     -68.453202      0.73633487   
     14050   1.5940167     -4.9295451      2.386243      -2.5433021      0.38461538     50             130            69.189537     -68.453202      0.73633487   
     14100   1.5179603     -4.8219858      2.2723865     -2.5495994      0.38931298     51             131            17.083231     -17.234488     -0.15125723   
     14150   1.5871157     -4.9263064      2.3759122     -2.5503942      0.38931298     51             131            17.083231     -17.234488     -0.15125723   
     14200   1.3605508     -4.8199661      2.0367446     -2.7832215      0.39393939     52             132            1.0098699     -1.4705494     -0.46067956   
     14250   1.4313429     -4.9253116      2.1427203     -2.7825914      0.39393939     52             132            1.0098699     -1.4705494     -0.46067956   
     14300   1.3970649     -4.9674216      2.0914062     -2.8760154      0.39849624     53             133           -73.727758      73.848901      0.12114307   
     14350   1.4173652     -4.9965142      2.1217956     -2.8747186      0.39849624     53             133           -73.727758      73.848901      0.12114307   
     14400   1.5230347     -4.974192       2.279983      -2.694209       0.40298507     54             134           -3.3851846      3.6837279      0.29854334   
     14450   1.4703618     -4.8939204      2.2011316     -2.6927889      0.40298507     54             134           -3.3851846      3.6837279      0.29854334   
     14500   1.4964927     -4.901081       2.2402495     -2.6608315      0.40740741     55             135            36.555496     -36.235016      0.32048059   
     14550   1.5032589     -4.911125       2.2503785     -2.6607465      0.40740741     55             135            36.555496     -36.235016      0.32048059   
     14600   1.4555617     -4.89944        2.1789759     -2.7204641      0.41176471     56             136            0.82052396    -0.67948433     0.14103963   
     14650   1.5165889     -4.9913684      2.2703336     -2.7210347      0.41176471     56             136            0.82052396    -0.67948433     0.14103963   
     14700   1.5418818     -4.9303502      2.3081971     -2.6221532      0.41605839     57             137           -15.455147      15.772514      0.31736638   
     14750   1.5063497     -4.8771069      2.2550055     -2.6221014      0.41605839     57             137           -15.455147      15.772514      0.31736638   
     14800   1.483062      -4.7886545      2.2201438     -2.5685108      0.42028986     58             138            70.847851     -70.462995      0.38485613   
     14850   1.4977421     -4.8110277      2.24212       -2.5689077      0.42028986     58             138            70.847851     -70.462995      0.38485613   
     14900   1.5464303     -4.8505632      2.3150061     -2.5355571      0.42446043     59             139           -30.954321      30.520789     -0.43353187   
     14950   1.4853613     -4.7602387      2.2235859     -2.5366528      0.42446043     59             139           -30.954321      30.520789     -0.43353187   
     15000   1.4135393     -4.8601854      2.1160684     -2.7441171      0.42857143     60             140           -4.8111163      3.7355044     -1.0756118    
     15050   1.4431999     -4.9035826      2.1604703     -2.7431124      0.42857143     60             140           -4.8111163      3.7355044     -1.0756118    
     15100   1.4899225     -4.9128075      2.230414      -2.6823934      0.43262411     61             141           -26.311019      26.985552      0.67453231   
     15150   1.4743391     -4.8904056      2.2070856     -2.68332        0.43262411     61             141           -26.311019      26.985552      0.67453231   
     15200   1.5238899     -4.9180011      2.2812632     -2.6367379      0.43661972     62             142           -2.5967964      1.9490325     -0.64776388   
     15250   1.4803895     -4.8519999      2.2161431     -2.6358568      0.43661972     62             142           -2.5967964      1.9490325     -0.64776388   
     15300   1.4456746     -4.8160416      2.1641749     -2.6518667      0.44055944     63             143            50.97972      -51.098054     -0.11833412   
     15350   1.4907621     -4.8820464      2.2316709     -2.6503755      0.44055944     63             143            50.97972      -51.098054     -0.11833412   
     15400   1.4619134     -4.8160416      2.1884843     -2.6275573      0.4375         63             144           -39.500995      40.053978      0.55298228   
     15450   1.4820768     -4.8390259      2.218669      -2.6203569      0.4375         63             144           -39.500995      40.053978      0.55298228   
     15500   1.556566      -4.8160416      2.3301793     -2.4858623      0.43448276     63             145           -36.090112      39.303473      3.2133601    
     15550   1.6090866     -4.8811783      2.4088026     -2.4723756      0.43448276     63             145           -36.090112      39.303473      3.2133601    
     15600   1.5424815     -4.8160416      2.3090948     -2.5069468      0.43150685     63             146            42.453884     -36.642122      5.8117626    
     15650   1.5867794     -4.8740956      2.3754088     -2.4986869      0.43150685     63             146            42.453884     -36.642122      5.8117626    
     15700   1.4472306     -4.8160416      2.1665043     -2.6495373      0.42857143     63             147            12.887883     -9.3253307      3.5625524    
     15750   1.5038712     -4.8729733      2.2512952     -2.6216782      0.42857143     63             147            12.887883     -9.3253307      3.5625524    
     15800   1.5687592     -4.8160416      2.3484325     -2.4676091      0.42567568     63             148           -5.2678153      20.054577      14.786761    
     15850   1.5328905     -4.7568383      2.2947371     -2.4621012      0.42567568     63             148           -5.2678153      20.054577      14.786761    
     15900   1.5611413     -4.8160416      2.3370285     -2.4790132      0.42281879     63             149            6.4867315     -3.4977426      2.988989     
     15950   1.5815926     -4.8271868      2.3676442     -2.4595426      0.42281879     63             149            6.4867315     -3.4977426      2.988989     
     16000   1.5158313     -4.8160416      2.2691994     -2.5468422      0.42           63             150           -33.87504       43.705693      9.8306528    
     16050   1.5636271     -4.864171       2.3407498     -2.5234212      0.42           63             150           -33.87504       43.705693      9.8306528    
     16100   1.4492767     -4.8160416      2.1695673     -2.6464744      0.41721854     63             151           -30.565485      42.415327      11.849843    
     16150   1.4819751     -4.863955       2.2185167     -2.6454383      0.41721854     63             151           -30.565485      42.415327      11.849843    
     16200   1.5484278     -4.8816641      2.3179964     -2.5636677      0.42105263     64             152           -32.811236      33.051713      0.24047684   
     16250   1.5121756     -4.8272123      2.2637268     -2.5634854      0.42105263     64             152           -32.811236      33.051713      0.24047684   
     16300   1.4234383     -4.8560773      2.1308871     -2.7251903      0.4248366      65             153            12.793369     -13.624433     -0.83106352   
     16350   1.4312889     -4.8656671      2.1426395     -2.7230275      0.4248366      65             153            12.793369     -13.624433     -0.83106352   
     16400   1.4625916     -4.8707691      2.1894996     -2.6812696      0.42857143     66             154           -7.3458893      9.2211204      1.8752312    
     16450   1.436698      -4.8331703      2.1507369     -2.6824334      0.42857143     66             154           -7.3458893      9.2211204      1.8752312    
     16500   1.5058051     -4.8908234      2.2541903     -2.6366331      0.43225806     67             155           -10.02713       9.2842233     -0.74290636   
     16550   1.5481299     -4.9535813      2.3175505     -2.6360308      0.43225806     67             155           -10.02713       9.2842233     -0.74290636   
     16600   1.5542668     -4.9236761      2.3267374     -2.5969387      0.43589744     68             156           -16.426383      16.213768     -0.21261518   
     16650   1.564542      -4.9389672      2.3421194     -2.5968478      0.43589744     68             156           -16.426383      16.213768     -0.21261518   
     16700   1.5830019     -4.804044       2.3697539     -2.4342901      0.43949045     69             157            59.816075     -60.008969     -0.19289404   
     16750   1.5860126     -4.8087898      2.3742608     -2.434529       0.43949045     69             157            59.816075     -60.008969     -0.19289404   
     16800   1.5198393     -4.7702274      2.2751995     -2.4950279      0.44303797     70             158            16.9083       -16.348655      0.55964503   
     16850   1.596677      -4.8867453      2.3902254     -2.4965198      0.44303797     70             158            16.9083       -16.348655      0.55964503   
     16900   1.4304089     -4.7341661      2.1413222     -2.5928439      0.44654088     71             159            18.030661     -18.506267     -0.47560558   
     16950   1.540586      -4.8987541      2.3062572     -2.5924969      0.44654088     71             159            18.030661     -18.506267     -0.47560558   
     17000   1.5205844     -4.7341661      2.2763149     -2.4578512      0.44375        71             160           -76.853866      77.473063      0.61919697   
     17050   1.5577481     -4.7786938      2.3319488     -2.446745       0.44375        71             160           -76.853866      77.473063      0.61919697   
     17100   1.5132663     -4.7341661      2.2653596     -2.4688065      0.44099379     71             161           -67.851077      73.795839      5.944761     
     17150   1.5628437     -4.7864621      2.3395771     -2.446885       0.44099379     71             161           -67.851077      73.795839      5.944761     
     17200   1.465317      -4.7341661      2.1935795     -2.5405866      0.4382716      71             162           -33.65657       43.207107      9.5505364    
     17250   1.5601279     -4.8680176      2.3355114     -2.5325061      0.4382716      71             162           -33.65657       43.207107      9.5505364    
     17300   1.5154668     -4.7341661      2.2686538     -2.4655122      0.43558282     71             163           -53.806484      57.909131      4.1026469    
     17350   1.6011114     -4.8480415      2.3968638     -2.4511777      0.43558282     71             163           -53.806484      57.909131      4.1026469    
     17400   1.4939113     -4.7341661      2.2363852     -2.4977809      0.43292683     71             164           -35.738629      42.79236       7.0537311    
     17450   1.4966915     -4.7244991      2.2405471     -2.483952       0.43292683     71             164           -35.738629      42.79236       7.0537311    
     17500   1.5239074     -4.7341661      2.2812894     -2.4528767      0.43030303     71             165           -72.750746      79.496509      6.7457623    
     17550   1.5573074     -4.7704663      2.3312891     -2.4391772      0.43030303     71             165           -72.750746      79.496509      6.7457623    
     17600   1.5478571     -4.7341661      2.3171421     -2.417024       0.42771084     71             166           -26.545707      34.526163      7.980456     
     17650   1.525443      -4.6941945      2.2835882     -2.4106063      0.42771084     71             166           -26.545707      34.526163      7.980456     
     17700   1.5663157     -4.7341661      2.3447747     -2.3893914      0.4251497      71             167            18.855611     -15.946541      2.9090702    
     17750   1.5509872     -4.7010497      2.3218278     -2.3792219      0.4251497      71             167            18.855611     -15.946541      2.9090702    
     17800   1.5054138     -4.7341661      2.2536044     -2.4805616      0.42261905     71             168           -52.858228      57.224001      4.3657728    
     17850   1.5514309     -4.7863234      2.322492      -2.4638313      0.42261905     71             168           -52.858228      57.224001      4.3657728    
     17900   1.4978357     -4.7341661      2.2422601     -2.491906       0.42011834     71             169           -11.088488      19.22271       8.1342226    
     17950   1.576387      -4.851755       2.3598514     -2.4919036      0.42011834     71             169           -11.088488      19.22271       8.1342226    
     18000   1.6038904     -4.7341661      2.4010239     -2.3331422      0.41764706     71             170           -63.927367      64.343039      0.41567265   
     18050   1.6542909     -4.7986268      2.4764734     -2.3221533      0.41764706     71             170           -63.927367      64.343039      0.41567265   
     18100   1.4827659     -4.7341661      2.2197006     -2.5144655      0.41520468     71             171            12.726488     -6.3704572      6.3560304    
     18150   1.5125456     -4.7575724      2.2642807     -2.4932917      0.41520468     71             171            12.726488     -6.3704572      6.3560304    
     18200   1.5174606     -4.7341661      2.2716386     -2.4625275      0.4127907      71             172           -62.887671      73.73972       10.852049    
     18250   1.5761977     -4.8139432      2.3595679     -2.4543753      0.4127907      71             172           -62.887671      73.73972       10.852049    
     18300   1.5253537     -4.7341661      2.2834545     -2.4507116      0.41040462     71             173           -31.163618      36.51385       5.3502326    
     18350   1.5639164     -4.7836769      2.3411828     -2.4424941      0.41040462     71             173           -31.163618      36.51385       5.3502326    
     18400   1.4737875     -4.7341661      2.2062598     -2.5279062      0.40804598     71             174           -3.3693455      8.3001569      4.9308114    
     18450   1.4934834     -4.7466178      2.2357446     -2.5108732      0.40804598     71             174           -3.3693455      8.3001569      4.9308114    
     18500   1.5045856     -4.7341661      2.2523647     -2.4818014      0.40571429     71             175           -23.835754      31.001376      7.1656221    
     18550   1.583677      -4.8252063      2.3707645     -2.4544418      0.40571429     71             175           -23.835754      31.001376      7.1656221    
     18600   1.5129117     -4.7341661      2.2648289     -2.4693372      0.40340909     71             176           -0.49525614     13.391769      12.896513    
     18650   1.5580233     -4.7899521      2.3323609     -2.4575911      0.40340909     71             176           -0.49525614     13.391769      12.896513    
     18700   1.6283369     -4.7341661      2.4376204     -2.2965457      0.40112994     71             177           -62.258701      69.0414        6.7826986    
     18750   1.6982768     -4.8235105      2.5423204     -2.2811901      0.40112994     71             177           -62.258701      69.0414        6.7826986    
     18800   1.5606114     -4.7341661      2.3362353     -2.3979308      0.3988764      71             178           -32.047709      41.427036      9.3793267    
     18850   1.6139147     -4.8039816      2.4160303     -2.3879513      0.3988764      71             178           -32.047709      41.427036      9.3793267    
     18900   1.4446487     -4.7341661      2.1626391     -2.571527       0.39664804     71             179           -37.685503      42.640464      4.9549611    
     18950   1.5653036     -4.9085368      2.3432595     -2.5652773      0.39664804     71             179           -37.685503      42.640464      4.9549611    
     19000   1.5304154     -4.865438       2.2910318     -2.5744061      0.4            72             180           -65.635951      68.669328      3.0333767    
     19050   1.5137242     -4.8401318      2.2660452     -2.5740866      0.4            72             180           -65.635951      68.669328      3.0333767    
     19100   1.4705685     -4.8434532      2.201441      -2.6420122      0.40331492     73             181            10.992402     -11.559096     -0.56669328   
     19150   1.468938      -4.8378296      2.1990001     -2.6388295      0.40331492     73             181            10.992402     -11.559096     -0.56669328   
     19200   1.4672219     -4.8066327      2.1964312     -2.6102015      0.40659341     74             182            18.410242     -17.29445       1.1157919    
     19250   1.5277566     -4.8988706      2.2870517     -2.611819       0.40659341     74             182            18.410242     -17.29445       1.1157919    
     19300   1.4104286     -4.8624549      2.1114117     -2.7510432      0.40983607     75             183           -27.911083      27.090509     -0.82057357   
     19350   1.5082586     -5.0096334      2.2578631     -2.7517703      0.40983607     75             183           -27.911083      27.090509     -0.82057357   
     19400   1.5322958     -4.9379159      2.2938468     -2.6440691      0.41304348     76             184           -37.730509      38.103976      0.3734677    
     19450   1.4785207     -4.8607883      2.2133455     -2.6474429      0.41304348     76             184           -37.730509      38.103976      0.3734677    
     19500   1.4906259     -4.7819916      2.231467      -2.5505246      0.41621622     77             185            77.962145     -78.413548     -0.45140378   
     19550   1.4516307     -4.7239295      2.1730911     -2.5508384      0.41621622     77             185            77.962145     -78.413548     -0.45140378   
     19600   1.5244384     -4.858486       2.2820843     -2.5764017      0.41935484     78             186           -38.247186      37.848678     -0.39850827   
     19650   1.507856      -4.8334197      2.2572604     -2.5761593      0.41935484     78             186           -38.247186      37.848678     -0.39850827   
     19700   1.5932688     -4.858486       2.3851234     -2.4733626      0.4171123      78             187            20.213258     -19.888832      0.3244266    
     19750   1.5876275     -4.831411       2.3766784     -2.4547326      0.4171123      78             187            20.213258     -19.888832      0.3244266    
     19800   1.5140695     -4.858486       2.266562      -2.591924       0.41489362     78             188            24.914252     -15.81351       9.1007419    
     19850   1.5340665     -4.869145       2.2964976     -2.5726473      0.41489362     78             188            24.914252     -15.81351       9.1007419    
     19900   1.5263177     -4.858486       2.2848976     -2.5735883      0.41269841     78             189           -28.934338      37.764295      8.8299572    
     19950   1.5312787     -4.8631498      2.2923241     -2.5708257      0.41269841     78             189           -28.934338      37.764295      8.8299572    
     20000   1.474548      -4.858486       2.2073984     -2.6510876      0.41052632     78             190            10.872209     -7.4752816      3.3969272    
     20050   1.4367899     -4.782177       2.1508746     -2.6313024      0.41052632     78             190            10.872209     -7.4752816      3.3969272    
     20100   1.513616      -4.858486       2.2658832     -2.5926027      0.40837696     78             191           -29.018406      38.041898      9.0234925    
     20150   1.5004008     -4.8233786      2.2460999     -2.5772787      0.40837696     78             191           -29.018406      38.041898      9.0234925    
     20200   1.5485444     -4.858486       2.318171      -2.540315       0.40625        78             192           -14.998288      23.08246       8.0841721    
     20250   1.5086529     -4.8078268      2.2584533     -2.5493734      0.40625        78             192           -14.998288      23.08246       8.0841721    
     20300   1.4919965     -4.8496182      2.2335188     -2.6160994      0.40932642     79             193            4.4338531     -9.1451528     -4.7112997    
     20350   1.5430591     -4.9263827      2.3099595     -2.6164232      0.40932642     79             193            4.4338531     -9.1451528     -4.7112997    
     20400   1.4939909     -4.9395246      2.2365044     -2.7030203      0.41237113     80             194           -44.953197      44.678769     -0.27442783   
     20450   1.4478739     -4.8693918      2.1674672     -2.7019246      0.41237113     80             194           -44.953197      44.678769     -0.27442783   
     20500   1.5222608     -4.8758173      2.2788244     -2.5969929      0.41538462     81             195            31.853685     -32.30235      -0.44866405   
     20550   1.5149487     -4.8627608      2.2678781     -2.5948826      0.41538462     81             195            31.853685     -32.30235      -0.44866405   
     20600   1.5021664     -4.8725851      2.2487431     -2.623842       0.41836735     82             196            1.6160952     -1.7227575     -0.1066623    
     20650   1.4805397     -4.8384861      2.216368      -2.6221181      0.41836735     82             196            1.6160952     -1.7227575     -0.1066623    
     20700   1.5542213     -4.8725851      2.3266692     -2.5459159      0.41624365     82             197           -11.847473      13.508255      1.6607813    
     20750   1.5098066     -4.7853785      2.2601804     -2.5251981      0.41624365     82             197           -11.847473      13.508255      1.6607813    
     20800   1.5030098     -4.8725851      2.2500056     -2.6225795      0.41414141     82             198            33.34301      -21.242361      12.100649    
     20850   1.5432619     -4.9251723      2.3102631     -2.6149092      0.41414141     82             198            33.34301      -21.242361      12.100649    
     20900   1.459989      -4.8725851      2.1856035     -2.6869816      0.4120603      82             199            11.619639     -6.9365126      4.6831269    
     20950   1.4609099     -4.8534949      2.1869822     -2.6665127      0.4120603      82             199            11.619639     -6.9365126      4.6831269    
     21000   1.5537236     -4.8725851      2.3259243     -2.5466608      0.41           82             200            13.513843     -2.6227275      10.891115    
     21050   1.5807376     -4.8992459      2.3663642     -2.5328817      0.41           82             200            13.513843     -2.6227275      10.891115    
     21100   1.551142      -4.8725851      2.3220595     -2.5505255      0.4079602      82             201            34.929116     -27.732973      7.1961424    
     21150   1.5658902     -4.8840611      2.3441377     -2.5399235      0.4079602      82             201            34.929116     -27.732973      7.1961424    
     21200   1.5019272     -4.8725851      2.248385      -2.6242001      0.40594059     82             202            1.9470326      3.9126384      5.859671     
     21250   1.5644207     -4.960439       2.3419378     -2.6185012      0.40594059     82             202            1.9470326      3.9126384      5.859671     
     21300   1.5228661     -4.8725851      2.2797305     -2.5928546      0.40394089     82             203            32.013079     -28.454735      3.5583448    
     21350   1.5344426     -4.8663666      2.2970606     -2.569306       0.40394089     82             203            32.013079     -28.454735      3.5583448    
     21400   1.4752864     -4.8725851      2.2085037     -2.6640814      0.40196078     82             204            56.226475     -44.238016      11.988459    
     21450   1.495462      -4.8984112      2.2387067     -2.6597045      0.40196078     82             204            56.226475     -44.238016      11.988459    
     21500   1.4876139     -4.8725851      2.226958      -2.6456271      0.4            82             205            32.325769     -28.597189      3.7285795    
     21550   1.4911585     -4.85726        2.2322643     -2.6249957      0.4            82             205            32.325769     -28.597189      3.7285795    
     21600   1.4797712     -4.8725851      2.2152174     -2.6573676      0.39805825     82             206           -35.373902      46.192536      10.818634    
     21650   1.5007243     -4.8949487      2.2465843     -2.6483644      0.39805825     82             206           -35.373902      46.192536      10.818634    
     21700   1.4989429     -4.8725851      2.2439175     -2.6286675      0.39613527     82             207           -40.506566      45.185031      4.6784644    
     21750   1.4932284     -4.8357354      2.2353629     -2.6003726      0.39613527     82             207           -40.506566      45.185031      4.6784644    
     21800   1.5258739     -4.8725851      2.2842333     -2.5883518      0.39423077     82             208           -16.397467      30.176487      13.779019    
     21850   1.5806985     -4.9344946      2.3663057     -2.5681889      0.39423077     82             208           -16.397467      30.176487      13.779019    
     21900   1.4360616     -4.8725851      2.1497842     -2.7228009      0.3923445      82             209           -7.5614428      17.043384      9.4819407    
     21950   1.4423276     -4.856013       2.1591645     -2.6968485      0.3923445      82             209           -7.5614428      17.043384      9.4819407    
     22000   1.4702579     -4.8725851      2.2009761     -2.6716089      0.39047619     82             210            26.468362     -13.06795       13.400412    
     22050   1.5129774     -4.9126796      2.2649272     -2.6477524      0.39047619     82             210            26.468362     -13.06795       13.400412    
     22100   1.5692497     -4.8725851      2.3491668     -2.5234183      0.38862559     82             211            12.569906     -1.3162399      11.253667    
     22150   1.5974303     -4.8922397      2.3913532     -2.5008865      0.38862559     82             211            12.569906     -1.3162399      11.253667    
     22200   1.5143068     -4.8725851      2.2669173     -2.6056678      0.38679245     82             212            36.478169     -24.779794      11.698374    
     22250   1.5099139     -4.8420832      2.2603411     -2.5817421      0.38679245     82             212            36.478169     -24.779794      11.698374    
     22300   1.4959034     -4.8725851      2.2393673     -2.6332177      0.38497653     82             213            38.28305      -24.992526      13.290524    
     22350   1.5108017     -4.8893179      2.2616702     -2.6276477      0.38497653     82             213            38.28305      -24.992526      13.290524    
     22400   1.4619054     -4.8725851      2.1884724     -2.6841127      0.38317757     82             214           -13.092633      15.306513      2.2138802    
     22450   1.4465893     -4.8313095      2.1655442     -2.6657654      0.38317757     82             214           -13.092633      15.306513      2.2138802    
     22500   1.5070515     -4.8725851      2.2560561     -2.616529       0.38139535     82             215           -8.0708979      18.143232      10.072334    
     22550   1.501895      -4.8489792      2.2483369     -2.6006423      0.38139535     82             215           -8.0708979      18.143232      10.072334    
     22600   1.4379551     -4.8725851      2.1526188     -2.7199663      0.37962963     82             216            38.059304     -29.422287      8.637017     
     22650   1.4594825     -4.8797106      2.1848452     -2.6948654      0.37962963     82             216            38.059304     -29.422287      8.637017     
     22700   1.5667641     -4.8725851      2.3454458     -2.5271393      0.37788018     82             217            10.549782      1.4654955      12.015278    
     22750   1.5697771     -4.8743769      2.3499563     -2.5244206      0.37788018     82             217            10.549782      1.4654955      12.015278    
     22800   1.4285822     -4.8680925      2.1385875     -2.729505       0.38073394     83             218            2.2462806     -0.95300277     1.2932778    
     22850   1.4763376     -4.9374865      2.2100774     -2.727409       0.38073394     83             218            2.2462806     -0.95300277     1.2932778    
     22900   1.5734188     -4.8680925      2.355408      -2.5126845      0.37899543     83             219           -14.670273      15.555202      0.88492979   
     22950   1.5341144     -4.8027712      2.2965693     -2.5062018      0.37899543     83             219           -14.670273      15.555202      0.88492979   
     23000   1.4623861     -4.8135405      2.189192      -2.6243485      0.38181818     84             220            27.275988     -25.746624      1.5293637    
     23050   1.549699      -4.9431311      2.3198994     -2.6232317      0.38181818     84             220            27.275988     -25.746624      1.5293637    
     23100   1.4628612     -4.8871735      2.1899031     -2.6972704      0.38461538     85             221           -36.816479      36.415404     -0.40107567   
     23150   1.4600346     -4.8826498      2.1856717     -2.696978       0.38461538     85             221           -36.816479      36.415404     -0.40107567   
     23200   1.5355423     -4.8631079      2.2987068     -2.5644011      0.38738739     86             222            12.032809     -11.548699      0.48410955   
     23250   1.5200465     -4.8392257      2.2755096     -2.5637161      0.38738739     86             222            12.032809     -11.548699      0.48410955   
     23300   1.5017968     -4.9072073      2.2481898     -2.6590175      0.39013453     87             223           -22.049723      22.214955      0.1652323    
     23350   1.5644061     -5.0035092      2.3419159     -2.6615933      0.39013453     87             223           -22.049723      22.214955      0.1652323    
     23400   1.4589052     -4.9370221      2.183981      -2.7530411      0.39285714     88             224           -14.907391      13.914596     -0.99279501   
     23450   1.4710117     -4.9545659      2.2021046     -2.7524613      0.39285714     88             224           -14.907391      13.914596     -0.99279501   
     23500   1.489024      -4.9086644      2.2290689     -2.6795956      0.39555556     89             225            14.178842     -13.729885      0.44895637   
     23550   1.470709      -4.8824623      2.2016514     -2.6808109      0.39555556     89             225            14.178842     -13.729885      0.44895637   
     23600   1.5823187     -4.8893438      2.3687311     -2.5206127      0.39823009     90             226            9.6603381     -9.1567952      0.50354292   
     23650   1.6047428     -4.923375       2.4023        -2.521075       0.39823009     90             226            9.6603381     -9.1567952      0.50354292   
     23700   1.4548353     -4.8719313      2.1778885     -2.6940428      0.40088106     91             227            8.7062483     -9.9970015     -1.2907532    
     23750   1.4916005     -4.9234539      2.232926      -2.6905279      0.40088106     91             227            8.7062483     -9.9970015     -1.2907532    
     23800   1.5205688     -4.8837566      2.2762915     -2.6074651      0.40350877     92             228           -5.9126519      6.9562533      1.0436014    
     23850   1.4607493     -4.7936172      2.1867417     -2.6068755      0.40350877     92             228           -5.9126519      6.9562533      1.0436014    
     23900   1.5180892     -4.8384394      2.2725795     -2.5658599      0.40611354     93             229            22.6586       -22.940876     -0.28227643   
     23950   1.4791485     -4.7809906      2.2142853     -2.5667053      0.40611354     93             229            22.6586       -22.940876     -0.28227643   
     24000   1.5203472     -4.8825226      2.2759598     -2.6065628      0.40869565     94             230           -22.041634      22.209651      0.16801649   
[...]
     45250   1.4932768     -4.9260538      2.2354354     -2.6906184      0.4321267      191            442           -41.910007      41.101149     -0.80885787   
     45300   1.5289246     -4.8667274      2.2888001     -2.5779273      0.43340858     192            443            11.573732     -12.111355     -0.53762334   
     45350   1.528447      -4.8646239      2.2880851     -2.5765389      0.43340858     192            443            11.573732     -12.111355     -0.53762334   
     45400   1.4206853     -4.8667274      2.1267659     -2.7399616      0.43243243     192            444           -1.9687637      2.4713694      0.50260563   
     45450   1.3926736     -4.8074604      2.0848324     -2.722628       0.43243243     192            444           -1.9687637      2.4713694      0.50260563   
     45500   1.4845286     -4.8667274      2.2223393     -2.6443881      0.43146067     192            445           -36.349916      45.511064      9.1611479    
     45550   1.4917228     -4.864273       2.233109      -2.6311639      0.43146067     192            445           -36.349916      45.511064      9.1611479    
     45600   1.4980199     -4.8667274      2.2425358     -2.6241917      0.43049327     192            446           -9.6837422      16.07704       6.3932982    
     45650   1.4581859     -4.8016109      2.1829043     -2.6187066      0.43049327     192            446           -9.6837422      16.07704       6.3932982    
     45700   1.3260636     -4.9365494      1.9851172     -2.9514322      0.43176734     193            447           -34.910978      37.012027      2.1010489    
     45750   1.4081805     -5.0586471      2.1080461     -2.9506009      0.43176734     193            447           -34.910978      37.012027      2.1010489    
     45800   1.530513      -5.0239828      2.291178      -2.7328048      0.43303571     194            448           -43.716713      43.561353     -0.15535975   
     45850   1.4239795     -4.8648534      2.1316972     -2.7331561      0.43303571     194            448           -43.716713      43.561353     -0.15535975   
     45900   1.4848294     -4.8647014      2.2227896     -2.6419118      0.43429844     195            449            79.640732     -79.750217     -0.10948408   
     45950   1.4764971     -4.8534185      2.2103162     -2.6431023      0.43429844     195            449            79.640732     -79.750217     -0.10948408   
     46000   1.5480961     -4.8647014      2.3174998     -2.5472016      0.43333333     195            450           -19.949911      20.528332      0.57842087   
     46050   1.6173782     -4.9649156      2.4212152     -2.5437004      0.43333333     195            450           -19.949911      20.528332      0.57842087   
     46100   1.4938856     -4.8647014      2.2363467     -2.6283546      0.43237251     195            451            44.879522     -42.222115      2.6574064    
     46150   1.5587921     -4.9369749      2.3335118     -2.6034631      0.43237251     195            451            44.879522     -42.222115      2.6574064    
     46200   1.4819852     -4.8647014      2.2185318     -2.6461695      0.43141593     195            452           -7.6753745      20.302561      12.627187    
     46250   1.4846386     -4.8428696      2.222504      -2.6203655      0.43141593     195            452           -7.6753745      20.302561      12.627187    
     46300   1.5057364     -4.8647014      2.2540874     -2.610614       0.43046358     195            453            36.402        -23.84354       12.558461    
     46350   1.4831726     -4.8054565      2.2203094     -2.5851471      0.43046358     195            453            36.402        -23.84354       12.558461    
     46400   1.5267327     -4.8647014      2.2855189     -2.5791825      0.42951542     195            454           -15.717683      26.686225      10.968542    
     46450   1.4829213     -4.7791036      2.2199332     -2.5591705      0.42951542     195            454           -15.717683      26.686225      10.968542    
     46500   1.6401756     -4.8647014      2.4553428     -2.4093586      0.42857143     195            455            18.166505     -8.5404991      9.6260061    
     46550   1.5715022     -4.765784       2.3525388     -2.4132452      0.42857143     195            455            18.166505     -8.5404991      9.6260061    
     46600   1.4936415     -4.7358196      2.2359813     -2.4998382      0.42982456     196            456            64.440902     -66.169978     -1.7290766    
     46650   1.552042      -4.8248987      2.3234069     -2.5014918      0.42982456     196            456            64.440902     -66.169978     -1.7290766    
     46700   1.4673431     -4.8588021      2.1966126     -2.6621895      0.43107221     197            457           -61.491282      59.723611     -1.7676714    
     46750   1.4657849     -4.8554032      2.19428       -2.6611232      0.43107221     197            457           -61.491282      59.723611     -1.7676714    
     46800   1.408846      -4.91194        2.1090425     -2.8028975      0.43231441     198            458           -26.56894       26.50609      -0.062849829  
     46850   1.3827378     -4.8701679      2.0699585     -2.8002094      0.43231441     198            458           -26.56894       26.50609      -0.062849829  
     46900   1.4058435     -4.9055666      2.1045478     -2.8010188      0.4335512      199            459            3.1867027     -2.0548672      1.1318355    
     46950   1.3798575     -4.8647427      2.0656466     -2.7990961      0.4335512      199            459            3.1867027     -2.0548672      1.1318355    
     47000   1.5100996     -4.9719702      2.260619      -2.7113512      0.43478261     200            460           -33.201823      33.624186      0.42236257   
     47050   1.5281768     -5.0001545      2.2876807     -2.7124738      0.43478261     200            460           -33.201823      33.624186      0.42236257   
     47100   1.544453      -4.9220967      2.3120462     -2.6100505      0.43600868     201            461            24.936764     -25.806588     -0.86982447   
     47150   1.5106082     -4.8695655      2.2613804     -2.6081851      0.43600868     201            461            24.936764     -25.806588     -0.86982447   
     47200   1.4842115     -4.897352       2.2218646     -2.6754874      0.43722944     202            462            12.37235      -11.786025      0.58632548   
     47250   1.4815483     -4.8939154      2.2178777     -2.6760376      0.43722944     202            462            12.37235      -11.786025      0.58632548   
     47300   1.5375958     -4.897352       2.301781      -2.5955711      0.4362851      202            463            5.9037201     -5.002292       0.90142807   
     47350   1.501664      -4.8293266      2.247991      -2.5813356      0.4362851      202            463            5.9037201     -5.002292       0.90142807   
     47400   1.476171      -4.897352       2.2098279     -2.6875241      0.43534483     202            464            16.220547     -8.7638549      7.456692     
     47450   1.3868081     -4.7456714      2.0760517     -2.6696197      0.43534483     202            464            16.220547     -8.7638549      7.456692     
     47500   1.4074272     -4.897352       2.1069184     -2.7904336      0.4344086      202            465            17.776548     -8.7145988      9.0619493    
     47550   1.4145493     -4.9162022      2.1175803     -2.798622       0.4344086      202            465            17.776548     -8.7145988      9.0619493    
     47600   1.5318148     -4.8345961      2.2931268     -2.5414693      0.43562232     203            466            31.377958     -35.491477     -4.1135187    
     47650   1.5256507     -4.8259027      2.2838991     -2.5420036      0.43562232     203            466            31.377958     -35.491477     -4.1135187    
     47700   1.4220174     -4.9117814      2.1287601     -2.7830213      0.43683084     204            467           -38.592639      38.472921     -0.11971807   
     47750   1.4266615     -4.9198709      2.1357122     -2.7841587      0.43683084     204            467           -38.592639      38.472921     -0.11971807   
     47800   1.4248189     -4.8866391      2.1329539     -2.7536851      0.43803419     205            468            12.57116      -11.79878       0.77237945   
     47850   1.388382      -4.8332451      2.0784079     -2.7548372      0.43803419     205            468            12.57116      -11.79878       0.77237945   
     47900   1.4394103     -4.8708055      2.1547972     -2.7160083      0.43923241     206            469            7.91678       -8.9040272     -0.98724721   
     47950   1.4642473     -4.9059464      2.1919782     -2.7139682      0.43923241     206            469            7.91678       -8.9040272     -0.98724721   
     48000   1.5777551     -4.9933723      2.3618994     -2.6314729      0.44042553     207            470           -61.283413      61.073247     -0.21016603   
     48050   1.4799754     -4.8474545      2.2155231     -2.6319314      0.44042553     207            470           -61.283413      61.073247     -0.21016603   
     48100   1.4807764     -4.9933723      2.2167222     -2.7766501      0.43949045     207            471            35.907043     -35.599573      0.30746944   
     48150   1.4793355     -4.9749818      2.2145653     -2.7604165      0.43949045     207            471            35.907043     -35.599573      0.30746944   
     48200   1.4535909     -4.9933723      2.1760256     -2.8173468      0.43855932     207            472            47.842008     -39.615577      8.2264312    
     48250   1.4707102     -5.0086293      2.2016531     -2.8069761      0.43855932     207            472            47.842008     -39.615577      8.2264312    
     48300   1.5546892     -4.9933723      2.3273697     -2.6660027      0.43763214     207            473            15.519571     -8.7184535      6.8011173    
     48350   1.4997669     -4.89933        2.245151      -2.654179       0.43763214     207            473            15.519571     -8.7184535      6.8011173    
     48400   1.4450615     -4.9933723      2.163257      -2.8301153      0.43670886     207            474            50.435843     -44.976323      5.4595202    
     48450   1.4023801     -4.909639       2.099363      -2.810276       0.43670886     207            474            50.435843     -44.976323      5.4595202    
     48500   1.4777263     -4.9933723      2.2121562     -2.7812161      0.43578947     207            475            48.092727     -38.356776      9.7359507    
     48550   1.4713158     -4.9839459      2.2025598     -2.7813861      0.43578947     207            475            48.092727     -38.356776      9.7359507    
     48600   1.491793      -4.8900167      2.2332142     -2.6568025      0.43697479     208            476            51.677797     -51.792709     -0.11491221   
     48650   1.4965808     -4.8991924      2.2403815     -2.658811       0.43697479     208            476            51.677797     -51.792709     -0.11491221   
     48700   1.4214118     -4.7990898      2.1278535     -2.6712363      0.43815514     209            477            45.463472     -45.94024      -0.47676881   
     48750   1.4941565     -4.9050947      2.2367523     -2.6683425      0.43815514     209            477            45.463472     -45.94024      -0.47676881   
     48800   1.4915207     -4.8603823      2.2328065     -2.6275758      0.43933054     210            478           -30.646242      30.641022     -0.0052205443 
     48850   1.4437502     -4.7883903      2.161294      -2.6270962      0.43933054     210            478           -30.646242      30.641022     -0.0052205443 
     48900   1.474269      -4.8712109      2.2069807     -2.6642301      0.44050104     211            479           -5.4143103      5.2470012     -0.16730913   
     48950   1.5067545     -4.9214157      2.2556115     -2.6658042      0.44050104     211            479           -5.4143103      5.2470012     -0.16730913   
     49000   1.4308165     -4.8225607      2.1419322     -2.6806284      0.44166667     212            480            24.325116     -23.726891      0.59822502   
     49050   1.5042076     -4.9335878      2.2517988     -2.681789       0.44166667     212            480            24.325116     -23.726891      0.59822502   
     49100   1.5119263     -4.9414723      2.2633536     -2.6781186      0.44282744     213            481           -59.455804      58.679208     -0.77659635   
     49150   1.4803117     -4.8933699      2.2160266     -2.6773433      0.44282744     213            481           -59.455804      58.679208     -0.77659635   
     49200   1.5257264     -4.9695294      2.2840124     -2.685517       0.4439834      214            482           -14.028539      14.568535      0.5399963    
     49250   1.4758593     -4.8939891      2.2093614     -2.6846277      0.4439834      214            482           -14.028539      14.568535      0.5399963    
     49300   1.5245441     -4.9072614      2.2822425     -2.625019       0.44513458     215            483            31.133958     -30.424158      0.70979965   
     49350   1.4953147     -4.8641441      2.2384861     -2.6256579      0.44513458     215            483            31.133958     -30.424158      0.70979965   
     49400   1.5185724     -4.930024       2.2733029     -2.6567211      0.44628099     216            484           -11.381283      10.117227     -1.2640555    
     49450   1.4641541     -4.8465291      2.1918386     -2.6546905      0.44628099     216            484           -11.381283      10.117227     -1.2640555    
     49500   1.4110587     -4.8200425      2.1123549     -2.7076876      0.44742268     217            485            54.990736     -53.96982       1.0209158    
     49550   1.4899473     -4.9393131      2.2304511     -2.7088619      0.44742268     217            485            54.990736     -53.96982       1.0209158    
     49600   1.4762294     -5.0051272      2.2099153     -2.7952119      0.44855967     218            486           -92.542358      92.931523      0.38916421   
     49650   1.4331462     -4.9421262      2.1454198     -2.7967064      0.44855967     218            486           -92.542358      92.931523      0.38916421   
     49700   1.4563696     -4.8725624      2.1801853     -2.6923771      0.44969199     219            487            66.282405     -66.937426     -0.65502187   
     49750   1.5292582     -4.982881       2.2892995     -2.6935816      0.44969199     219            487            66.282405     -66.937426     -0.65502187   
     49800   1.4629739     -4.8470932      2.1900719     -2.6570214      0.45081967     220            488            12.73461      -12.407616      0.32699333   
     49850   1.4863924     -4.8836356      2.2251294     -2.6585062      0.45081967     220            488            12.73461      -12.407616      0.32699333   
     49900   1.4622262     -4.8197828      2.1889526     -2.6308303      0.45194274     221            489            13.655187     -14.191918     -0.53673146   
     49950   1.4845966     -4.8523102      2.2224412     -2.629869       0.45194274     221            489            13.655187     -14.191918     -0.53673146   
     50000   1.5052663     -4.8620026      2.2533837     -2.608619       0.45306122     222            490           -21.109898      21.401276      0.29137866   
     50050   1.5300754     -4.8983811      2.2905228     -2.6078583      0.45306122     222            490           -21.109898      21.401276      0.29137866   
     50100   1.4684295     -4.7440469      2.198239      -2.5458079      0.45417515     223            491            58.977847     -58.675263      0.30258396   
     50150   1.5044665     -4.7975704      2.2521863     -2.5453841      0.45417515     223            491            58.977847     -58.675263      0.30258396   
     50200   1.5136698     -4.7957852      2.2659637     -2.5298215      0.45528455     224            492           -25.869129      26.502808      0.63367842   
     50250   1.4600492     -4.716319       2.1856936     -2.5306254      0.45528455     224            492           -25.869129      26.502808      0.63367842   
     50300   1.509094      -4.8856931      2.2591137     -2.6265793      0.45638945     225            493           -44.953934      44.60941      -0.34452455   
     50350   1.4192143     -4.7504894      2.1245637     -2.6259256      0.45638945     225            493           -44.953934      44.60941      -0.34452455   
     50400   1.4449818     -4.7647582      2.1631378     -2.6016204      0.45748988     226            494            60.467452     -60.042793      0.42465898   
     50450   1.5118169     -4.8670551      2.2631898     -2.6038653      0.45748988     226            494            60.467452     -60.042793      0.42465898   
     50500   1.4973172     -4.835081       2.2414839     -2.5935971      0.45858586     227            495           -35.161397      35.001367     -0.16002944   
     50550   1.5118864     -4.8554302      2.263294      -2.5921362      0.45858586     227            495           -35.161397      35.001367     -0.16002944   
     50600   1.5560989     -4.8543657      2.32948       -2.5248856      0.45967742     228            496           -9.6423616      9.2256854     -0.41667627   
     50650   1.5569014     -4.8570745      2.3306814     -2.5263932      0.45967742     228            496           -9.6423616      9.2256854     -0.41667627   
     50700   1.5154493     -4.8543657      2.2686276     -2.5857381      0.45875252     228            497            74.794492     -73.937837      0.85665488   
     50750   1.5406743     -4.8765028      2.3063895     -2.5701133      0.45875252     228            497            74.794492     -73.937837      0.85665488   
     50800   1.5236718     -4.8543657      2.2809367     -2.573429       0.45783133     228            498            14.478498     -6.4955949      7.9829032    
     50850   1.5359498     -4.8549555      2.2993169     -2.5556386      0.45783133     228            498            14.478498     -6.4955949      7.9829032    
     50900   1.5462458     -4.8543657      2.31473       -2.5396356      0.45691383     228            499            52.455451     -42.832061      9.6233901    
     50950   1.5522539     -4.8335867      2.3237241     -2.5098627      0.45691383     228            499            52.455451     -42.832061      9.6233901    
     51000   1.4822034     -4.8543657      2.2188585     -2.6355072      0.456          228            500           -21.526303      36.137685      14.611382    
Loop time of 5.46598 on 4 procs for 50000 steps with 500 atoms

Performance: 3951718.106 tau/day, 9147.496 timesteps/s, 4.574 Matom-step/s
92.3% CPU use with 4 MPI tasks x no OpenMP threads

MPI task timing breakdown:
Section |  min time  |  avg time  |  max time  |%varavg| %total
---------------------------------------------------------------
Pair    | 2.099      | 2.205      | 2.3304     |   5.8 | 40.34
Neigh   | 1.4963     | 1.5094     | 1.5231     |   0.8 | 27.62
Comm    | 1.4822     | 1.6215     | 1.7286     |   7.3 | 29.67
Output  | 0.0081265  | 0.0089452  | 0.011163   |   1.4 |  0.16
Modify  | 0.050358   | 0.051091   | 0.052566   |   0.4 |  0.93
Other   |            | 0.06992    |            |       |  1.28

Nlocal:            125 ave         129 max         118 min
Histogram: 1 0 0 0 0 0 1 0 0 2
Nghost:              0 ave           0 max           0 min
Histogram: 4 0 0 0 0 0 0 0 0 0
Neighs:        4715.75 ave        4947 max        4490 min
Histogram: 1 1 0 0 0 0 0 0 1 1

Total # of neighbors = 18863
Ave neighs/atom = 37.726
Neighbor list builds = 6834
Dangerous builds = 0
Total wall time: 0:00:05
